68
Energy = -1946.348553917
C     2.2133140   -1.0654282   -1.8021283 
C     1.0230464   -1.7690033   -2.0673992 
C    -0.1648782   -1.0220975   -2.1833599 
N    -0.2278910    0.3025891   -2.0131493 
C     0.9190616    0.9653292   -1.7432234 
C     2.1701157    0.3208507   -1.6570044 
H     3.0697238    0.9013111   -1.4364469 
H     3.1483056   -1.6209686   -1.6842292 
C     0.7567230    2.3943279   -1.4227086 
N     1.8506958    3.2061353   -1.2426433 
N     1.6383894    4.3867456   -0.7567769 
C     0.3171539    4.6385091   -0.3605471 
N    -0.6665250    4.1655467   -1.2494311 
N    -0.4442148    2.9926517   -1.7384480 
C     0.0332927    6.0037938    0.2114993 
N     1.0637253    6.8512907    0.3513746 
N    -1.2467739    6.2332746    0.5517167 
C    -1.5220938    7.4459949    1.0599946 
C    -0.5308087    8.4212490    1.2321842 
C     0.7706526    8.0618003    0.8607888 
H     1.6068069    8.7635771    0.9750724 
H    -2.5646789    7.6388248    1.3433042 
H    -0.7597746    9.4073839    1.6455649 
C     1.0312222   -3.2723846   -2.0397484 
N     0.0165046   -3.8965775   -2.7064924 
O     1.9079338   -3.8781357   -1.4073139 
C    -0.3218256   -5.2935783   -2.4719025 
H    -0.6422532   -3.3318452   -3.2411758 
C    -1.5175160   -5.4337887   -1.5014421 
H    -0.5625740   -5.7896743   -3.4272872 
H     0.5671893   -5.7705930   -2.0331396 
N    -1.3180795   -4.6953507   -0.2604545 
H    -2.4356143   -5.0412498   -1.9674069 
H    -1.6737596   -6.5079332   -1.2917305 
C    -0.3560771   -5.0646462    0.6253282 
H    -1.9051890   -3.8748775   -0.0548835 
O     0.3253400   -6.0814058    0.5334434 
O    -0.2543058   -4.1305460    1.6294545 
C     0.7265123   -4.3119247    2.7409693 
C     2.1426377   -4.2191996    2.1597505 
C     0.4295086   -3.1233183    3.6633073 
C     0.4514648   -5.6340806    3.4697798 
H     0.6672404   -6.4982188    2.8256423 
H     1.0902294   -5.6867274    4.3682627 
H    -0.6035784   -5.6775674    3.7918397 
H     0.6807326   -2.1698010    3.1706933 
H    -0.6344853   -3.1170843    3.9554495 
H     1.0435323   -3.2088564    4.5756344 
H     2.2541198   -3.2736835    1.6033545 
H     2.8787264   -4.2407269    2.9822134 
H     2.3377296   -5.0573406    1.4747165 
H    -1.1261510   -1.5219102   -2.3643547 
C    -0.5621859    1.0390964    0.9176659 
C     0.0195462   -0.3022903    1.1141859 
N    -0.8804319   -1.3634530    0.9390368 
C    -2.1929637   -1.2806655    0.5286452 
N    -2.6671230    0.0229887    0.4006360 
C    -1.8976934    1.1292198    0.5793820 
H    -2.4017003    2.0824961    0.4024481 
H    -3.6412505    0.1204956    0.1073799 
H    -0.5225919   -2.3225693    1.1116717 
O    -2.8971020   -2.2631128    0.2855989 
O     1.1920885   -0.5275783    1.4179644 
C     0.3421932    2.1621844    1.0295405 
C     0.0184720    3.5163193    1.2404361 
H     1.3865160    1.8633534    1.1764069 
H    -1.0269517    3.8036391    1.4000170 
H     0.7452839    4.0859762    1.8283421 
