68
Energy = -1946.348686510
C     4.0417584   -2.0486194   -0.9094563 
C     3.4892858   -3.2197983   -1.4574780 
C     2.2784025   -3.1003123   -2.1737078 
N     1.6192875   -1.9470484   -2.3287034 
C     2.1513101   -0.8357629   -1.7777256 
C     3.3648949   -0.8375443   -1.0607832 
H     3.7575532    0.0923632   -0.6426166 
H     4.9924572   -2.1075942   -0.3716484 
C     1.3588674    0.4042879   -1.9270387 
N     1.6874937    1.4769550   -1.1699157 
N     0.8525848    2.4925656   -1.1256202 
C    -0.3163118    2.3460272   -1.7967044 
N    -0.4544630    1.4605727   -2.8072164 
N     0.4245454    0.4832748   -2.9092945 
C    -1.4375722    3.2777083   -1.5010390 
N    -1.1716167    4.3161342   -0.6879875 
N    -2.6275358    2.9656271   -2.0446545 
C    -3.6508692    3.7785254   -1.7395936 
C    -3.4906798    4.8994657   -0.9127103 
C    -2.2044940    5.1280229   -0.4065942 
H    -1.9971476    5.9788239    0.2546875 
H    -4.6294596    3.5237502   -2.1651134 
H    -4.3292043    5.5566027   -0.6671112 
C     4.2488329   -4.5113511   -1.2923771 
N     3.5341109   -5.6605187   -1.4569961 
O     5.4553511   -4.4973202   -1.0100838 
C     4.1584960   -6.9788306   -1.4347076 
H     2.5290435   -5.6083750   -1.6154340 
C     4.4304618   -7.5129035   -2.8575176 
H     3.5080921   -7.6811751   -0.8870868 
H     5.1139062   -6.8776211   -0.8968501 
N     5.2319357   -6.5945518   -3.6572268 
H     3.4829481   -7.6878344   -3.3932149 
H     4.9635869   -8.4751151   -2.7787054 
C     6.5595217   -6.4035049   -3.3719250 
H     4.7536458   -5.8144447   -4.1071872 
O     7.2236497   -7.1571414   -2.6620559 
O     7.0120255   -5.3012432   -4.0159294 
C     8.3881856   -4.7950796   -3.8060658 
C     8.6063772   -4.4871107   -2.3182109 
C     8.3911526   -3.5060847   -4.6360828 
C     9.3991389   -5.8104715   -4.3560391 
H     9.3602549   -6.7467037   -3.7786262 
H    10.4176518   -5.3899548   -4.2896552 
H     9.1813676   -6.0310351   -5.4155965 
H     7.6315478   -2.8031604   -4.2532866 
H     8.1667001   -3.7275670   -5.6936614 
H     9.3814690   -3.0235529   -4.5787256 
H     7.7830470   -3.8585056   -1.9416288 
H     9.5636783   -3.9517973   -2.1932668 
H     8.6324412   -5.4144402   -1.7268820 
H     1.8212062   -3.9743118   -2.6567996 
C    -1.2681368    1.6047682    1.2554342 
C    -2.5050344    2.3396860    1.5517537 
N    -2.3331875    3.4555907    2.3898791 
C    -1.1444593    3.9918574    2.8632016 
N    -0.0324816    3.2229756    2.5299786 
C    -0.0839526    2.1064941    1.7463280 
H     0.8850197    1.6578512    1.5164671 
H     0.8707809    3.5889128    2.8344038 
H    -3.1769389    3.9930356    2.6035627 
O    -1.0731448    5.0304359    3.5116301 
O    -3.6265562    2.0567122    1.1229483 
C    -1.3605910    0.4455026    0.3651956 
C    -0.4370115   -0.5301017    0.2016504 
H    -2.2947132    0.4012194   -0.2093361 
H     0.4869746   -0.5731613    0.7908823 
H    -0.5925808   -1.3313695   -0.5279296 
