72
Energy = -1982.804497173
C     1.6157421   -6.1339600    8.0442793 
C     1.1457145   -6.8444292    6.9261834 
C     0.4473929   -6.1358965    5.9248117 
N     0.1008531   -4.8529377    6.0418491 
C     0.4416876   -4.2165930    7.1849781 
C     1.2619666   -4.7887471    8.1759084 
H     1.5304882   -4.2143911    9.0657401 
H     2.1433688   -6.6480717    8.8538835 
C    -0.2518236   -2.9402306    7.4334869 
N    -0.2262899   -2.4360359    8.6845775 
N    -1.1818214   -1.5897499    9.0270799 
C    -2.1032407   -1.2960986    8.0821116 
N    -1.8606386   -1.4638768    6.7665543 
N    -0.9030020   -2.3081758    6.4242139 
C    -3.3919493   -0.7111480    8.5296673 
N    -3.8309100   -1.1679524    9.7189939 
N    -4.0175653    0.1591889    7.7229835 
C    -5.1955248    0.6317765    8.1676645 
C    -5.7459863    0.2346754    9.3947199 
C    -5.0127497   -0.6923918   10.1465843 
H    -5.3813497   -1.0718818   11.1069909 
H    -5.7161460    1.3477237    7.5196957 
H    -6.7067813    0.6219507    9.7439798 
C     1.1200134   -8.3421812    6.9143433 
N     2.2383573   -8.9764044    7.3371843 
O     0.0709297   -8.9322304    6.5849419 
C     2.2709507  -10.3771279    7.7410934 
H     3.0586730   -8.4099672    7.5531237 
C     2.3950892  -10.4970373    9.2727356 
H     1.3342538  -10.8431001    7.3982866 
H     3.1168537  -10.8842398    7.2444082 
N     3.6077728   -9.8671662    9.7773401 
H     1.5422358   -9.9907954    9.7525374 
H     2.3856092  -11.5640474    9.5560411 
C     3.6089080   -8.6595718   10.4169822 
H     4.5122523  -10.2861987    9.5615369 
O     2.5971517   -8.0292756   10.7262470 
O     4.8877082   -8.2659316   10.6495004 
C     5.1829495   -7.0105643   11.3830194 
C     6.7149140   -6.9667955   11.3467815 
C     4.5839134   -5.8043399   10.6432978 
C     4.6646937   -7.1294202   12.8223042 
H     5.0949820   -8.0207971   13.3105878 
H     4.9655899   -6.2366167   13.3971907 
H     3.5664672   -7.2059074   12.8340118 
H     3.4886908   -5.7831439   10.7433512 
H     4.9986817   -4.8749673   11.0701340 
H     4.8498067   -5.8430560    9.5727191 
H     7.1362258   -7.8694712   11.8210594 
H     7.0745764   -6.9147495   10.3048214 
H     7.0781475   -6.0788849   11.8909389 
H     0.1183843   -6.6586370    5.0177495 
C    -4.4541584   -3.4217053    6.7478042 
C    -4.0523811   -3.9944868    7.9047211 
C    -3.1161399   -5.1089754    8.0400733 
C    -2.8844098   -6.1251921    7.1080368 
N    -1.9839264   -7.0357523    7.6119792 
C    -1.5819800   -6.6282835    8.8623144 
C    -2.2695117   -5.4210902    9.1741593 
C    -1.9135388   -4.8384257   10.4290703 
N    -2.4689633   -3.7082070   10.9429605 
N    -0.9771630   -5.4557105   11.1985154 
C    -0.4289706   -6.6083107   10.7705656 
H    -5.1903590   -2.6107446    6.7453931 
H    -4.0545319   -3.7375261    5.7766327 
H    -4.4581700   -3.5993588    8.8454216 
H    -3.3310345   -6.2739813    6.1251415 
H    -1.5448325   -7.8228130    7.1110950 
H    -2.9521152   -3.0038061   10.3722073 
H    -2.0071240   -3.3372263   11.7735200 
H     0.3334694   -7.0552258   11.4209905 
N    -0.6793761   -7.2653000    9.6290919 
