72
Energy = -1982.805187778
C     3.9416697   -2.5981913   -1.8429643 
C     3.4704624   -3.6265518   -2.6771496 
C     2.2980160   -3.3810042   -3.4249731 
N     1.6452500   -2.2139401   -3.4162856 
C     2.1346402   -1.2210972   -2.6439955 
C     3.2718297   -1.3739534   -1.8248152 
H     3.6134020   -0.5444498   -1.2011946 
H     4.8253350   -2.7737817   -1.2223399 
C     1.3870510    0.0557739   -2.6670905 
N     1.7285921    1.0203295   -1.7796491 
N     0.9272682    2.0534494   -1.6399516 
C    -0.2154862    2.0398162   -2.3691677 
N    -0.3425872    1.2908424   -3.4854691 
N     0.4993331    0.2901070   -3.6658936 
C    -1.3110465    2.9747909   -2.0003936 
N    -1.0214133    3.9366548   -1.1064188 
N    -2.5059918    2.7364089   -2.5698449 
C    -3.5130475    3.5418505   -2.1967648 
C    -3.3323793    4.5743150   -1.2664183 
C    -2.0410243    4.7318390   -0.7440689 
H    -1.8202609    5.5136941   -0.0070926 
H    -4.4947851    3.3471495   -2.6450000 
H    -4.1595457    5.2178399   -0.9567487 
C     4.1853539   -4.9517838   -2.6605776 
N     4.0165481   -5.7334662   -3.7628961 
O     4.8911340   -5.2768484   -1.6941490 
C     4.4508946   -7.1223822   -3.8140092 
H     3.4135362   -5.4022782   -4.5142034 
C     3.2961941   -8.0849809   -3.4627988 
H     4.8317955   -7.3511295   -4.8236870 
H     5.2747503   -7.2341991   -3.0912438 
N     2.7353299   -7.8252303   -2.1468949 
H     2.4797237   -7.9774210   -4.1951207 
H     3.6650174   -9.1243496   -3.5040237 
C     1.6723007   -6.9849511   -1.9602489 
H     3.3076719   -8.0254078   -1.3268860 
O     0.9688495   -6.5325220   -2.8648567 
O     1.5089324   -6.7547901   -0.6324577 
C     0.3608972   -5.9783767   -0.1107266 
C    -0.9490753   -6.6902548   -0.4754944 
C     0.6058845   -6.0118297    1.4022842 
C     0.4093514   -4.5391668   -0.6387616 
H     0.2158005   -4.5080413   -1.7204481 
H    -0.3561138   -3.9368159   -0.1212542 
H     1.3977908   -4.0902588   -0.4411964 
H     0.6215787   -7.0530215    1.7672265 
H     1.5726443   -5.5379546    1.6440997 
H    -0.1967794   -5.4653339    1.9253970 
H    -0.9305810   -7.7324587   -0.1124580 
H    -1.7964360   -6.1690285    0.0024630 
H    -1.1008993   -6.6913936   -1.5657448 
H     1.8398886   -4.1804848   -4.0214890 
C    -0.6168919   -1.0461759   -0.7963123 
C    -1.5485671   -0.0792413   -0.6136722 
C    -1.5599142    0.9296136    0.4428026 
C    -0.4551582    1.3836764    1.1679529 
N    -0.8317664    2.4075678    2.0048648 
C    -2.1727351    2.6636988    1.8458412 
C    -2.6720935    1.7504557    0.8789970 
C    -4.0684144    1.8689764    0.6131267 
N    -4.7291058    1.0846965   -0.2765805 
N    -4.7861891    2.8341102    1.2382844 
C    -4.1589887    3.6436537    2.1132186 
N    -2.8715612    3.6237960    2.4836557 
H    -0.6737606   -1.7274768   -1.6503047 
H     0.2138623   -1.1971283   -0.0973247 
H    -2.3632735   -0.0109958   -1.3473906 
H     0.5862427    1.0693312    1.1149763 
H    -0.2061857    2.9331148    2.6138577 
H    -4.3177428    0.2204744   -0.6163236 
H    -5.7430758    1.1673050   -0.3262455 
H    -4.7885061    4.4122065    2.5833423 
