68
Energy = -1946.357290730
C     4.6565443   -0.2232090   -2.6056268 
C     4.3825832   -1.3049547   -3.4599631 
C     3.1998615   -1.2568366   -4.2297256 
N     2.3202219   -0.2524393   -4.1746745 
C     2.5955145    0.7782152   -3.3481629 
C     3.7616360    0.8440010   -2.5567481 
H     3.9326381    1.7043385   -1.9051701 
H     5.5523750   -0.2449177   -1.9783423 
C     1.5636745    1.8260008   -3.2312578 
N     1.7684791    2.8442211   -2.3662235 
N     0.7158796    3.5289843   -1.9649462 
C    -0.4819673    3.1370101   -2.4543617 
N    -0.5790971    2.4897806   -3.6358097 
N     0.4755478    1.8143979   -4.0431825 
C    -1.7030388    3.5584975   -1.7256899 
N    -1.5572561    3.6683023   -0.3892999 
N    -2.8292035    3.7614362   -2.4243141 
C    -3.9063380    4.1394835   -1.7131383 
C    -3.8628496    4.3100919   -0.3224448 
C    -2.6409885    4.0453087    0.3090839 
H    -2.5260522    4.1255107    1.3965038 
H    -4.8330601    4.3098586   -2.2749737 
H    -4.7440500    4.6202796    0.2453230 
C     5.2831307   -2.5102513   -3.4127402 
N     5.3623120   -3.2457284   -4.5565893 
O     5.8914716   -2.7925547   -2.3703370 
C     6.0811963   -4.5121447   -4.6283698 
H     4.8903992   -2.9110849   -5.3957090 
C     5.1322565   -5.7222626   -4.5036726 
H     6.6324470   -4.5657109   -5.5820718 
H     6.8005333   -4.5284760   -3.7950359 
N     4.3523573   -5.7022086   -3.2729242 
H     4.4254766   -5.7477840   -5.3489996 
H     5.7350490   -6.6461534   -4.5320641 
C     4.9459243   -5.9404185   -2.0644780 
H     3.4435120   -5.2424642   -3.2692730 
O     6.0961237   -6.3598844   -1.9406996 
O     4.0756932   -5.6778688   -1.0576365 
C     4.4926798   -5.7900202    0.3602557 
C     5.6433136   -4.8111411    0.6337952 
C     3.2237774   -5.3786098    1.1160033 
C     4.8656360   -7.2447429    0.6808707 
H     5.7633272   -7.5507520    0.1234371 
H     5.0631695   -7.3417889    1.7625647 
H     4.0309511   -7.9178369    0.4181507 
H     2.9360072   -4.3452600    0.8606632 
H     2.3873702   -6.0497374    0.8556575 
H     3.3998934   -5.4391290    2.2031731 
H     5.3752496   -3.8021828    0.2794679 
H     5.8422147   -4.7715675    1.7187163 
H     6.5577121   -5.1285386    0.1107972 
H     2.9292927   -2.0944830   -4.8867181 
C     1.5854709   -0.2340033   -0.0172190 
C     0.5520768    0.7747398   -0.2747276 
N     0.5598468    1.8844663    0.5738825 
C     1.4558030    2.1559791    1.5926563 
N     2.4121035    1.1545028    1.7615896 
C     2.4719911    0.0175953    1.0058275 
H     3.2716010   -0.6757047    1.2794900 
H     3.0866522    1.3004578    2.5142116 
H    -0.1444250    2.6280261    0.3556963 
O     1.4219658    3.1699537    2.2842940 
O    -0.2826713    0.7090734   -1.1930680 
C     1.6002585   -1.4334335   -0.8623437 
C     2.5990753   -2.3327786   -0.9798360 
H     0.6904165   -1.5590943   -1.4617943 
H     3.5595174   -2.2307021   -0.4625960 
H     2.4996056   -3.2098537   -1.6257821 
