72
Energy = -1982.792559361
C     2.2754937   -3.4236650    0.9905432 
C     1.6528810   -3.9089290   -0.1726987 
C     1.0911713   -2.9626071   -1.0545204 
N     1.1398070   -1.6412276   -0.8492316 
C     1.7574791   -1.1901397    0.2596492 
C     2.3345354   -2.0459625    1.2149413 
H     2.8143160   -1.6280581    2.1028356 
H     2.6939435   -4.1367739    1.7071475 
C     1.7642165    0.2997642    0.4344700 
N     2.3693338    0.7872344    1.6029221 
N     2.3496704    2.0744960    1.7393319 
C     1.8952717    2.8111886    0.6747723 
N     2.0905087    2.3133245   -0.5887858 
N     2.0695977    1.0275936   -0.7313082 
C     1.6339013    4.2564221    0.8467101 
N     1.4782393    4.6958789    2.1124843 
N     1.5266863    4.9977289   -0.2741893 
C     1.2555496    6.3013441   -0.1027140 
C     1.0920479    6.8713164    1.1661537 
C     1.2117173    6.0026578    2.2600880 
H     1.0791715    6.3663472    3.2873067 
H     1.1590042    6.9080508   -1.0122927 
H     0.8665365    7.9331818    1.2960513 
C     1.5283909   -5.3983604   -0.3506125 
N     1.1942517   -5.8329812   -1.5997288 
O     1.7232723   -6.1679236    0.6023690 
C     0.7249494   -7.1898797   -1.8438723 
H     1.0267351   -5.1445935   -2.3315775 
C    -0.8167911   -7.2658923   -1.7682209 
H     1.0666013   -7.5271024   -2.8367941 
H     1.1782446   -7.8361534   -1.0756842 
N    -1.3348907   -6.7652882   -0.5049246 
H    -1.2653760   -6.6551896   -2.5683621 
H    -1.1370528   -8.3128070   -1.9092492 
C    -1.7410416   -5.4677453   -0.3469464 
H    -1.1106535   -7.2777202    0.3480484 
O    -1.9219909   -4.6723794   -1.2697877 
O    -1.9271380   -5.2115667    0.9733677 
C    -2.5552837   -3.9550191    1.4435259 
C    -3.9766851   -3.8520936    0.8740093 
C    -2.5794479   -4.1525047    2.9635725 
C    -1.6878914   -2.7474196    1.0660097 
H    -1.6704288   -2.5979972   -0.0228650 
H    -2.0977770   -1.8428939    1.5469890 
H    -0.6538912   -2.8922113    1.4217762 
H    -3.1644543   -5.0502352    3.2268456 
H    -1.5527845   -4.2740775    3.3494639 
H    -3.0384521   -3.2751964    3.4496856 
H    -4.5583153   -4.7533954    1.1342805 
H    -4.4838967   -2.9722080    1.3059371 
H    -3.9501725   -3.7443743   -0.2213989 
H     0.5295768   -3.2809245   -1.9419422 
C    -0.1897001    0.6087814    0.7594883 
C    -0.5420083    1.9683571    0.6626782 
C    -0.9720715    2.6030259   -0.5475494 
C    -0.8488900    2.0575179   -1.8409306 
N    -1.2186588    2.9845358   -2.7661772 
C    -1.5965812    4.1575214   -2.1343842 
C    -1.4716595    3.9526165   -0.7406956 
C    -1.8590868    5.0624288    0.0649673 
N    -1.8499734    5.0460457    1.4193104 
N    -2.2333493    6.2176144   -0.5387179 
C    -2.2683433    6.2658489   -1.8820680 
N    -1.9880478    5.2841691   -2.7536744 
H    -0.1856986    0.1629500    1.7586185 
H    -0.4987108   -0.0639488   -0.0468121 
H    -0.5775436    2.5483239    1.5903012 
H    -0.4768613    1.0796765   -2.1469170 
H    -1.2074325    2.8464229   -3.7769127 
H    -1.7773705    4.1783940    1.9404792 
H    -2.2113236    5.8589888    1.9145245 
H    -2.5733196    7.2281457   -2.3160409 
