68
Energy = -1946.333697708
C     1.4650945   -2.1483277   -3.2165129 
C     0.4427417   -2.9764618   -2.7215490 
C    -0.4792138   -2.4133719   -1.8165630 
N    -0.3947850   -1.1548651   -1.3718376 
C     0.6055162   -0.3798915   -1.8313481 
C     1.5392029   -0.8202640   -2.7852792 
H     2.3267751   -0.1465006   -3.1318890 
H     2.2090048   -2.5603405   -3.9053029 
C     0.7358834    0.9517367   -1.1519936 
N     0.9572257    0.8123433    0.2334842 
N     1.1148166    1.9194749    0.8847030 
C     1.0943983    3.0767980    0.1533743 
N     1.6239955    3.0441372   -1.1164381 
N     1.5317565    1.9291921   -1.7676598 
C     0.9433956    4.3729549    0.8531090 
N     0.8839973    4.3404911    2.1978611 
N     0.8167054    5.4612471    0.0692451 
C     0.6036762    6.6256082    0.7019332 
C     0.5162098    6.7122962    2.0981817 
C     0.6699796    5.5156600    2.8098187 
H     0.6145745    5.4981572    3.9059959 
H     0.4932559    7.5175460    0.0716264 
H     0.3335896    7.6641365    2.6045326 
C     0.4897095   -4.4585311   -2.9752034 
N    -0.7018569   -5.1219597   -2.9155281 
O     1.5772759   -5.0249095   -3.1486988 
C    -0.7870922   -6.5360145   -2.5727865 
H    -1.5566857   -4.5693672   -2.8568486 
C    -1.6443482   -6.7476875   -1.2946743 
H    -1.2217522   -7.1293240   -3.3972654 
H     0.2468611   -6.8736997   -2.4087082 
N    -1.4608087   -5.7098628   -0.2858835 
H    -2.7153942   -6.7451649   -1.5494615 
H    -1.4024914   -7.7418648   -0.8782342 
C    -0.2356914   -5.4066632    0.2389656 
H    -2.2100042   -5.0359562   -0.1372163 
O     0.7617045   -6.1141562    0.1074616 
O    -0.3014146   -4.2208241    0.9004021 
C     0.8625322   -3.6716221    1.6395383 
C     2.0284151   -3.4071248    0.6753797 
C     0.3089756   -2.3522779    2.1921982 
C     1.2422509   -4.6384476    2.7689005 
H     1.6170816   -5.5890478    2.3590200 
H     2.0300341   -4.1841909    3.3941158 
H     0.3643917   -4.8419152    3.4064704 
H     0.0461569   -1.6730536    1.3642611 
H    -0.5834844   -2.5418291    2.8141630 
H     1.0737423   -1.8563806    2.8132012 
H     1.7269447   -2.6892962   -0.1046133 
H     2.8696691   -2.9681963    1.2389878 
H     2.3619659   -4.3387857    0.1952580 
H    -1.2831527   -3.0193179   -1.3841801 
C    -1.8236427    2.2664181    0.9335760 
C    -2.1886637    3.3174443    1.8984719 
N    -2.5233310    2.8338009    3.1746847 
C    -2.5647193    1.5179468    3.6068003 
N    -2.2190039    0.5984884    2.6062896 
C    -1.8685788    0.9438279    1.3424657 
H    -1.6070780    0.1121002    0.6784809 
H    -2.2577682   -0.3863128    2.8762110 
H    -2.7836392    3.5354801    3.8727179 
O    -2.8718950    1.1729306    4.7395311 
O    -2.2186064    4.5233615    1.6572879 
C    -1.3652915    2.6608218   -0.3739463 
C    -1.0933536    1.7538119   -1.4077610 
H    -1.3333382    3.7378792   -0.5666456 
H    -1.5579922    0.7624876   -1.3709016 
H    -0.9328009    2.1582384   -2.4117268 
