72
Energy = -1982.803422015
C     3.0466298   -3.1427875   -0.7624975 
C     2.3554311   -4.3329227   -1.0491846 
C     1.0787112   -4.2229972   -1.6417244 
N     0.4926872   -3.0565156   -1.9291312 
C     1.1672236   -1.9226537   -1.6459917 
C     2.4484440   -1.9169987   -1.0573920 
H     2.9539713   -0.9701520   -0.8534809 
H     4.0477798   -3.1990359   -0.3253897 
C     0.4773729   -0.6541982   -1.9687393 
N     1.0290819    0.5072615   -1.5430818 
N     0.3105465    1.6060165   -1.6187997 
C    -0.9601435    1.4705512   -2.0712922 
N    -1.3444867    0.4141758   -2.8186546 
N    -0.5920417   -0.6707321   -2.8031734 
C    -1.9237920    2.5798838   -1.8457961 
N    -1.4235554    3.7483046   -1.4069685 
N    -3.2183642    2.2883761   -2.0653787 
C    -4.0993713    3.2687173   -1.8109603 
C    -3.6957572    4.5266263   -1.3430393 
C    -2.3194189    4.7168318   -1.1566501 
H    -1.9250899    5.6715056   -0.7876724 
H    -5.1588085    3.0368916   -1.9737640 
H    -4.4192258    5.3161788   -1.1252335 
C     3.0558862   -5.6428011   -0.8005612 
N     2.2711810   -6.7571953   -0.7923796 
O     4.2824242   -5.6755944   -0.6207721 
C     2.8331341   -8.0975488   -0.8878743 
H     1.2724297   -6.6585118   -0.9668825 
C     2.8873347   -8.5719563   -2.3577991 
H     2.2236097   -8.7978198   -0.2925953 
H     3.8470433   -8.0585610   -0.4595192 
N     3.6170601   -7.6502751   -3.2136231 
H     1.8668074   -8.6560302   -2.7650402 
H     3.3615406   -9.5676984   -2.4005709 
C     2.9898369   -6.6558851   -3.9148319 
H     4.6202200   -7.5403288   -3.0657832 
O     1.7707014   -6.5677789   -4.0664620 
O     3.9193103   -5.8067226   -4.4224901 
C     3.5587865   -4.7362151   -5.3825151 
C     2.9438366   -5.3644973   -6.6404333 
C     4.9212944   -4.1036877   -5.6885399 
C     2.6211546   -3.7190945   -4.7195688 
H     1.6425810   -4.1682178   -4.4993654 
H     2.4771338   -2.8597285   -5.3968961 
H     3.0634419   -3.3493480   -3.7792076 
H     5.6063400   -4.8532983   -6.1201280 
H     5.3728542   -3.7029569   -4.7648779 
H     4.7997461   -3.2781362   -6.4098798 
H     3.6281650   -6.1205229   -7.0629789 
H     2.7776128   -4.5808850   -7.3996081 
H     1.9801141   -5.8422642   -6.4061245 
H     0.5149158   -5.1178137   -1.9339904 
C    -1.1208333   -0.8906900    0.5307053 
C    -1.9581535    0.1748210    0.5231409 
C    -1.7169771    1.4743938    1.1461992 
C    -0.4716457    2.0283905    1.4530140 
N    -0.6325894    3.3037232    1.9412222 
C    -1.9682140    3.6269288    1.9553226 
C    -2.6871247    2.5013218    1.4709549 
C    -4.1037843    2.6658055    1.4447257 
N    -4.9601068    1.7038896    1.0155875 
N    -4.6445042    3.8495500    1.8243111 
C    -3.8230964    4.8343981    2.2362847 
N    -2.4878629    4.8085904    2.3436843 
H    -1.3757036   -1.8090670   -0.0074157 
H    -0.1717851   -0.8827591    1.0799574 
H    -2.9014532    0.0791522   -0.0319092 
H     0.5251193    1.6106100    1.3191346 
H     0.1226184    3.9351211    2.2045298 
H    -4.6556752    0.7403302    0.9148618 
H    -5.9591644    1.8669998    1.1280354 
H    -4.3160444    5.7737463    2.5236977 
