72
Energy = -1982.790516778
C     2.6148415   -3.3528907    0.7445265 
C     1.4356822   -3.7891763    1.3735973 
C     0.3907424   -2.8544566    1.5223650 
N     0.4632714   -1.5917231    1.0869531 
C     1.5904370   -1.1931057    0.4678364 
C     2.7037060   -2.0343205    0.2912186 
H     3.5957428   -1.6596069   -0.2160820 
H     3.4366548   -4.0610556    0.6014283 
C     1.5708327    0.2043638   -0.0777317 
N     2.7892758    0.7058049   -0.5610867 
N     2.7409893    1.9101615   -1.0335610 
C     1.5009445    2.4851863   -1.1641015 
N     0.4319893    1.6653515   -1.4141003 
N     0.4592294    0.4775483   -0.8996210 
C     1.3999318    3.9261834   -1.4835671 
N     2.4903834    4.6778621   -1.2259576 
N     0.2208115    4.3693890   -1.9630798 
C     0.1421902    5.6827444   -2.2301525 
C     1.2202635    6.5538539   -2.0280560 
C     2.3909596    5.9864882   -1.5057933 
H     3.2737399    6.6045265   -1.2962449 
H    -0.8183012    6.0510118   -2.6127000 
H     1.1467371    7.6222949   -2.2483101 
C     1.3140571   -5.2413720    1.7485259 
N     0.3231569   -5.5578111    2.6312555 
O     2.0796865   -6.0862097    1.2600412 
C    -0.1478310   -6.9245339    2.8058212 
H    -0.2803525   -4.8131404    2.9763327 
C    -1.3827113   -7.2001006    1.9183799 
H    -0.4051111   -7.0994657    3.8642446 
H     0.6829020   -7.5925726    2.5291260 
N    -1.1367498   -6.9209427    0.5128513 
H    -2.2231117   -6.5609798    2.2345105 
H    -1.6864408   -8.2547908    2.0356480 
C    -1.4438976   -5.7161147   -0.0591463 
H    -0.4947873   -7.5237655   -0.0013281 
O    -2.1033578   -4.8303798    0.4869515 
O    -0.9273605   -5.6665554   -1.3132377 
C    -1.2415810   -4.5580663   -2.2476102 
C    -2.7558962   -4.5080412   -2.4920239 
C    -0.4910738   -4.9821770   -3.5152870 
C    -0.6927933   -3.2334651   -1.7041549 
H    -1.2401597   -2.9131167   -0.8073222 
H    -0.7862588   -2.4483518   -2.4738050 
H     0.3748109   -3.3392827   -1.4476156 
H    -0.8552125   -5.9615131   -3.8701529 
H     0.5907171   -5.0599055   -3.3118209 
H    -0.6481461   -4.2358570   -4.3121830 
H    -3.1195824   -5.4896088   -2.8424734 
H    -2.9776587   -3.7560618   -3.2688716 
H    -3.2906751   -4.2343395   -1.5695518 
H    -0.5679319   -3.1449155    1.9695484 
C     1.3047402    1.2680765    1.6130964 
C     0.8254073    2.5608045    1.3359870 
C    -0.5635832    2.8736043    1.1800330 
C    -1.5957511    1.9229445    1.0462329 
N    -2.7677046    2.5562441    0.7666363 
C    -2.5622064    3.9247212    0.7055021 
C    -1.1946311    4.1644631    0.9734612 
C    -0.8168152    5.5379083    0.9779364 
N     0.4403382    5.9677766    1.2443367 
N    -1.7423834    6.4790436    0.6686795 
C    -3.0022030    6.0874221    0.4068858 
N    -3.5026330    4.8420714    0.4211806 
H     2.3374624    1.1737427    1.9623628 
H     0.6028175    0.5320008    2.0182712 
H     1.5498316    3.3810222    1.3182477 
H    -1.5414830    0.8345644    1.0886882 
H    -3.6644517    2.0957718    0.6099554 
H     1.1274800    5.3609067    1.6793875 
H     0.6048549    6.9711016    1.2987299 
H    -3.7086260    6.8917578    0.1589690 
