72
Energy = -1982.792630466
C    -1.6379996    3.1451925   -1.9136753 
C    -0.5202000    3.9608618   -1.6642056 
C     0.7222889    3.3237837   -1.4701100 
N     0.8903666    1.9966169   -1.5284820 
C    -0.1843341    1.2303554   -1.7934099 
C    -1.4735276    1.7605125   -1.9874161 
H    -2.3138031    1.0922545   -2.1890597 
H    -2.6207275    3.6100095   -2.0382653 
C     0.0617464   -0.2492559   -1.8185140 
N    -1.0421539   -1.0501994   -2.1361483 
N    -0.8220722   -2.3244853   -2.1581532 
C     0.4737462   -2.7361063   -1.9643376 
N     1.4863935   -1.9273708   -2.4111679 
N     1.2730066   -0.6507065   -2.4185520 
C     0.7344855   -4.1648877   -1.6937426 
N    -0.3419916   -4.9644292   -1.5474432 
N     2.0244517   -4.5286721   -1.5499055 
C     2.2494348   -5.8140977   -1.2371380 
C     1.2074849   -6.7355691   -1.0614771 
C    -0.0937076   -6.2452885   -1.2330937 
H    -0.9661741   -6.8982041   -1.1012393 
H     3.2972112   -6.1155068   -1.1112999 
H     1.3995798   -7.7774645   -0.7925637 
C    -0.7302875    5.4432024   -1.5131040 
N     0.3795720    6.2248844   -1.6436212 
O    -1.8596646    5.9028761   -1.2858383 
C     0.3988930    7.6202530   -1.2281899 
H     1.2780104    5.7770137   -1.8168480 
C     0.9358165    7.7639750    0.2132618 
H     1.0288055    8.2050689   -1.9195589 
H    -0.6355835    7.9933153   -1.2911469 
N     0.1842611    6.9674639    1.1698813 
H     1.9839311    7.4267672    0.2607422 
H     0.8991652    8.8262459    0.5108119 
C     0.5640923    5.7013461    1.5228699 
H    -0.7827147    7.2258238    1.3657982 
O     1.6496023    5.1912807    1.2418228 
O    -0.4289476    5.1157150    2.2401090 
C    -0.2379878    3.8120142    2.9173658 
C     0.9043960    3.9259742    3.9359812 
C    -1.5861423    3.6087571    3.6182718 
C     0.0112394    2.7059917    1.8839123 
H     0.9811992    2.8417645    1.3852341 
H     0.0040258    1.7265810    2.3923345 
H    -0.7847747    2.7091424    1.1198694 
H    -1.7812708    4.4330978    4.3252672 
H    -2.4024662    3.5785883    2.8764161 
H    -1.5800235    2.6573533    4.1763666 
H     0.7094789    4.7565762    4.6363103 
H     0.9749897    2.9895835    4.5158562 
H     1.8644190    4.1020219    3.4268187 
H     1.6141723    3.9027183   -1.1984703 
C     0.3570023   -0.5563296    0.1331030 
C     0.5436865   -1.9132524    0.4630550 
C    -0.4651445   -2.7895196    0.9852758 
C    -1.8540454   -2.5678941    0.9341019 
N    -2.5125842   -3.6738431    1.3781513 
C    -1.6025742   -4.6523216    1.7364767 
C    -0.3045608   -4.1299391    1.5223447 
C     0.7596207   -5.0048885    1.8922698 
N     2.0692210   -4.6708352    1.8235700 
N     0.4640189   -6.2569793    2.3244737 
C    -0.8253255   -6.6193628    2.4347849 
N    -1.9171357   -5.8791635    2.1849157 
H     1.2413198    0.0886701    0.1323884 
H    -0.5630902   -0.0681668    0.4712542 
H     1.5689431   -2.2956846    0.4203438 
H    -2.4060997   -1.7020004    0.5700944 
H    -3.5263394   -3.7779903    1.4244197 
H     2.3723438   -3.7147528    1.6709794 
H     2.7598503   -5.3366251    2.1642808 
H    -1.0035749   -7.6468317    2.7808548 
