72
Energy = -1982.807967617
C     3.5689842   -2.3764121   -0.7366060 
C     2.9333392   -3.5902233   -1.0436273 
C     1.6158279   -3.5432465   -1.5495872 
N     0.9444374   -2.4046085   -1.7564775 
C     1.5554992   -1.2469347   -1.4306287 
C     2.8631383   -1.1835336   -0.9067909 
H     3.3045219   -0.2170241   -0.6535973 
H     4.5959117   -2.3727691   -0.3596745 
C     0.7641272   -0.0150395   -1.6321635 
N     1.1834168    1.1282976   -1.0345763 
N     0.3332903    2.1295723   -0.9750741 
C    -0.8803069    1.9574853   -1.5501878 
N    -1.1011107    1.0036953   -2.4835512 
N    -0.2685511   -0.0214130   -2.5070742 
C    -1.9563423    2.9437943   -1.2576822 
N    -1.6468925    3.9498316   -0.4204403 
N    -3.1528361    2.7130228   -1.8284259 
C    -4.1283430    3.5896033   -1.5394289 
C    -3.9188648    4.6833077   -0.6879494 
C    -2.6344858    4.8161677   -0.1420268 
H    -2.3917022    5.6395213    0.5416828 
H    -5.1083532    3.4078203   -1.9984086 
H    -4.7186133    5.3914938   -0.4545298 
C     3.6814595   -4.8945421   -0.9576009 
N     3.0080337   -5.9033736   -0.3496014 
O     4.8152690   -5.0030404   -1.4522022 
C     3.5039832   -7.2719106   -0.2863385 
H     2.1708115   -5.6592605    0.2019937 
C     2.9929282   -8.1288090   -1.4630677 
H     3.1719867   -7.7194895    0.6654724 
H     4.6072191   -7.2452169   -0.2960961 
N     3.5394064   -7.7128815   -2.7461974 
H     1.8949320   -8.0596370   -1.5279305 
H     3.2660884   -9.1836446   -1.2862916 
C     2.9403134   -6.7730846   -3.5378970 
H     4.5361999   -7.8577198   -2.9056729 
O     1.8022952   -6.3323920   -3.3738620 
O     3.7839727   -6.4406173   -4.5493256 
C     3.4737454   -5.3408610   -5.4898054 
C     2.2541946   -5.7165968   -6.3425578 
C     4.7458161   -5.2744397   -6.3431700 
C     3.2694758   -4.0344505   -4.7097858 
H     2.3145872   -4.0458764   -4.1651441 
H     3.2693104   -3.1820055   -5.4107423 
H     4.0869109   -3.9009323   -3.9809197 
H     4.9264938   -6.2430914   -6.8399293 
H     5.6185147   -5.0325630   -5.7127535 
H     4.6402939   -4.4948660   -7.1163394 
H     2.4296511   -6.6773944   -6.8569688 
H     2.0834962   -4.9381948   -7.1065616 
H     1.3553851   -5.8045824   -5.7135773 
H     1.1100657   -4.4767520   -1.8241697 
C    -1.9188296    0.3571541    0.7380426 
C    -1.1520074   -0.7577545    0.6804926 
C     0.0742332   -1.0105476    1.4339829 
C     0.9282993   -0.0529875    1.9850949 
N     2.0325038   -0.6689043    2.5305180 
C     1.9412449   -2.0266998    2.3451567 
C     0.7209639   -2.2852080    1.6673320 
C     0.4608868   -3.6619497    1.4028334 
N    -0.6618698   -4.1131907    0.7977586 
N     1.3979076   -4.5857587    1.7379727 
C     2.5215643   -4.1790252    2.3689064 
N     2.8625282   -2.9373993    2.7232747 
H    -2.8027142    0.4603932    0.1009908 
H    -1.6959039    1.1850142    1.4215041 
H    -1.4485843   -1.5481344   -0.0221682 
H     0.8446034    1.0330810    1.9887651 
H     2.8162372   -0.1922925    2.9746341 
H    -1.4598637   -3.5066610    0.6392824 
H    -0.8086342   -5.1173714    0.7180841 
H     3.2412627   -4.9740211    2.6068302 
