72
Energy = -1982.805136738
C     3.9021682   -2.6895477   -1.9048790 
C     3.3966319   -3.7189884   -2.7170640 
C     2.1644374   -3.4957707   -3.3701874 
N     1.4843518   -2.3476500   -3.2943860 
C     2.0023066   -1.3531291   -2.5433069 
C     3.2012724   -1.4853889   -1.8141248 
H     3.5649856   -0.6565022   -1.2021102 
H     4.8349990   -2.8488105   -1.3559683 
C     1.2186109   -0.0985007   -2.4915227 
N     1.5813464    0.8658299   -1.6135567 
N     0.7088065    1.8282606   -1.3797057 
C    -0.4457639    1.8114397   -2.0798390 
N    -0.5763019    1.1112045   -3.2327356 
N     0.2624019    0.1164959   -3.4305004 
C    -1.5642388    2.6883585   -1.6442715 
N    -1.5184078    3.1088624   -0.3673133 
N    -2.5316607    2.9428273   -2.5428647 
C    -3.5605435    3.6876201   -2.1069810 
C    -3.6255617    4.1756458   -0.7944253 
C    -2.5549617    3.8527758    0.0504464 
H    -2.5341534    4.1892901    1.0940197 
H    -4.3615946    3.8936551   -2.8273967 
H    -4.4729164    4.7700616   -0.4438581 
C     4.1420777   -5.0260304   -2.7751911 
N     3.9054178   -5.7960050   -3.8735063 
O     4.9273111   -5.3474859   -1.8710913 
C     4.3588048   -7.1757323   -3.9807959 
H     3.2381670   -5.4673843   -4.5696461 
C     3.2516966   -8.1653806   -3.5587614 
H     4.6639499   -7.3815550   -5.0207191 
H     5.2380403   -7.2838023   -3.3259148 
N     2.8006374   -7.9498575   -2.1935938 
H     2.3750805   -8.0529687   -4.2173094 
H     3.6304215   -9.1971709   -3.6585251 
C     1.7495254   -7.1285046   -1.8916063 
H     3.4391498   -8.1728298   -1.4303083 
O     0.9717140   -6.6510301   -2.7189401 
O     1.6920619   -6.9491955   -0.5471287 
C     0.5983316   -6.1824213    0.0918803 
C    -0.7445388   -6.8717384   -0.1861842 
C     0.9663101   -6.2678851    1.5777813 
C     0.6186036   -4.7270719   -0.3918635 
H     0.3314922   -4.6577260   -1.4507675 
H    -0.0907847   -4.1342815    0.2097258 
H     1.6266062   -4.2959249   -0.2681814 
H     1.0025474   -7.3208246    1.9056958 
H     1.9538428   -5.8085186    1.7549997 
H     0.2141013   -5.7344046    2.1829173 
H    -0.7067072   -7.9257644    0.1392371 
H    -1.5438611   -6.3607161    0.3778385 
H    -0.9863656   -6.8347520   -1.2594184 
H     1.6831975   -4.2998027   -3.9418563 
C    -0.7727061   -1.3803580   -0.7306211 
C    -1.7030719   -0.4498238   -0.4061308 
C    -2.9334804   -0.1595131   -1.1369515 
C    -3.1981988   -0.4675573   -2.4742476 
N    -4.4205521    0.0437338   -2.8401840 
C    -4.9815770    0.7064559   -1.7746983 
C    -4.0835953    0.5950451   -0.6793256 
C    -4.5329722    1.2158852    0.5238481 
N    -3.8180727    1.2166751    1.6781049 
N    -5.7138682    1.8817006    0.5294486 
C    -6.4419270    1.9194217   -0.6029500 
N    -6.1622514    1.3564610   -1.7861789 
H     0.1355811   -1.4948715   -0.1313742 
H    -0.8901796   -2.0597071   -1.5821837 
H    -1.5098704    0.1802851    0.4722138 
H    -2.5779772   -0.9891209   -3.2016928 
H    -4.8296000   -0.0131935   -3.7717455 
H    -3.0451274    0.5720831    1.8140269 
H    -4.2620504    1.5916542    2.5146066 
H    -7.3854480    2.4797605   -0.5417399 
