72
Energy = -1982.802480660
C     2.5932620   -2.7346278   -0.6044011 
C     1.9866726   -3.9508969   -0.9604433 
C     0.7884888   -3.8918993   -1.7066305 
N     0.1781217   -2.7518929   -2.0409670 
C     0.7513392   -1.5911019   -1.6597813 
C     1.9749808   -1.5345472   -0.9598271 
H     2.4149124   -0.5683763   -0.7036897 
H     3.5429092   -2.7485465   -0.0616983 
C     0.0234295   -0.3416520   -1.9847469 
N     0.6677872    0.8295450   -1.7458931 
N     0.0179502    1.9557934   -1.9432012 
C    -1.2808537    1.8655864   -2.3233874 
N    -1.8867585    0.7115116   -2.6728223 
N    -1.2116063   -0.4213808   -2.5220912 
C    -2.0630366    3.1331631   -2.4186706 
N    -1.3946892    4.2732489   -2.1699052 
N    -3.3666993    3.0192650   -2.7344263 
C    -4.0683150    4.1622213   -2.7752675 
C    -3.4814115    5.4084481   -2.5176364 
C    -2.1117822    5.4066079   -2.2235022 
H    -1.5741363    6.3414548   -2.0203608 
H    -5.1344887    4.0788792   -3.0217994 
H    -4.0617261    6.3346303   -2.5489175 
C     2.6982867   -5.2341138   -0.6229239 
N     1.9396209   -6.3660527   -0.6475894 
O     3.9054448   -5.2303157   -0.3395739 
C     2.5302852   -7.6972598   -0.6352499 
H     0.9574432   -6.2948620   -0.9086007 
C     2.7124248   -8.2376871   -2.0710412 
H     1.8860795   -8.3821509   -0.0586604 
H     3.5051227   -7.6174350   -0.1287786 
N     3.5124648   -7.3529704   -2.9025456 
H     1.7307789   -8.3464522   -2.5598913 
H     3.1906655   -9.2313774   -2.0270965 
C     2.9496698   -6.3866007   -3.6910931 
H     4.5033011   -7.2457095   -2.6861122 
O     1.7455949   -6.2938079   -3.9340589 
O     3.9243540   -5.5719651   -4.1698960 
C     3.6423649   -4.5226743   -5.1777077 
C     3.0934458   -5.1728145   -6.4547886 
C     5.0320297   -3.9207495   -5.4158950 
C     2.6846753   -3.4734265   -4.5982492 
H     1.6839555   -3.8985468   -4.4376000 
H     2.6048665   -2.6246143   -5.2991683 
H     3.0702105   -3.0953261   -3.6362174 
H     5.7285337   -4.6927708   -5.7851090 
H     5.4337585   -3.5025111   -4.4770973 
H     4.9691279   -3.1131514   -6.1644987 
H     3.7881183   -5.9508080   -6.8161277 
H     2.9884122   -4.4061186   -7.2416764 
H     2.1087945   -5.6280881   -6.2678277 
H     0.3221876   -4.8095124   -2.0873802 
C    -1.3351383   -2.1321314    0.7736933 
C    -1.9107196   -0.9105136    0.7082339 
C    -1.2562533    0.3804385    0.9092131 
C     0.0711577    0.6110599    1.2917143 
N     0.2935377    1.9603269    1.4342466 
C    -0.8634334    2.6512688    1.1659366 
C    -1.8565799    1.6961090    0.8102033 
C    -3.1174135    2.2586859    0.4511467 
N    -4.1630161    1.5139562   -0.0095551 
N    -3.3114189    3.5917320    0.5744214 
C    -2.2827344    4.3613459    0.9800668 
N    -1.0300432    3.9827952    1.2658090 
H    -1.9248126   -3.0389169    0.6064742 
H    -0.2689910   -2.2690769    0.9893407 
H    -2.9857956   -0.8686963    0.4965419 
H     0.8689831   -0.1002024    1.5019227 
H     1.1748478    2.3864347    1.7178599 
H    -3.9648999    0.6280989   -0.4705322 
H    -4.9327041    2.0417814   -0.4211863 
H    -2.4992101    5.4349536    1.0659100 
