68
Energy = -1946.282800066
C     2.4435809    0.9962708    1.6676512 
C     2.8101556   -0.2874797    1.2232211 
C     1.8162194   -1.0634601    0.5944785 
N     0.5527178   -0.6583636    0.4232614 
C     0.2155754    0.5685332    0.8624426 
C     1.1289543    1.4325930    1.4946921 
H     0.7927547    2.4195932    1.8217240 
H     3.2068232    1.6269859    2.1343261 
C    -1.2056376    0.9850980    0.6200433 
N    -1.6139252    2.1770531    1.2375384 
N    -2.8418487    2.5114386    1.0265849 
C    -3.5449706    1.7440539    0.1244068 
N    -2.8541891    1.2045357   -0.9375708 
N    -1.6404799    0.8271588   -0.7102553 
C    -5.0126889    1.9117240    0.0115076 
N    -5.6331330    2.4979974    1.0523607 
N    -5.6001955    1.3939119   -1.0856164 
C    -6.9342340    1.5062997   -1.1487369 
C    -7.6848889    2.1076731   -0.1318238 
C    -6.9646781    2.5883711    0.9723022 
H    -7.4772109    3.0539156    1.8250579 
H    -7.4184997    1.0833287   -2.0398279 
H    -8.7748751    2.1840675   -0.1865712 
C     4.2455901   -0.7141160    1.3941913 
N     4.4861486   -2.0654180    1.3518423 
O     5.1363289    0.1191568    1.5679747 
C     5.8363561   -2.6188425    1.3969468 
H     3.6978681   -2.7052162    1.2854495 
C     6.3828719   -2.9421238   -0.0111572 
H     5.8389487   -3.5248295    2.0290050 
H     6.4841212   -1.8587466    1.8623972 
N     6.4068717   -1.7785371   -0.8815941 
H     5.7752583   -3.7272505   -0.4961171 
H     7.4151796   -3.3170873    0.0884053 
C     7.3404073   -0.7874814   -0.6455844 
H     5.5260275   -1.4603859   -1.2829371 
O     8.3345409   -0.9459622    0.0497211 
O     6.9845949    0.3312431   -1.3190341 
C     7.7426355    1.5892316   -1.1482325 
C     7.7432571    2.0003184    0.3313811 
C     6.9265309    2.5760834   -1.9913592 
C     9.1597290    1.4131749   -1.7118887 
H     9.7177303    0.6692143   -1.1234528 
H     9.6958577    2.3777465   -1.6741343 
H     9.1142239    1.0808554   -2.7636417 
H     5.8999228    2.6574250   -1.5958618 
H     6.8730639    2.2354971   -3.0394958 
H     7.3961223    3.5741833   -1.9668077 
H     6.7145853    1.9888066    0.7265479 
H     8.1586837    3.0191053    0.4260582 
H     8.3525944    1.3069351    0.9296848 
H     2.0503684   -2.0583025    0.1881240 
C    -4.1734416   -1.1871853    0.2853236 
C    -5.6443901   -1.3082310    0.2829943 
N    -6.1563491   -2.0551136   -0.7985085 
C    -5.4667095   -2.6106489   -1.8682809 
N    -4.0756681   -2.4364157   -1.7575164 
C    -3.4598996   -1.7592663   -0.7468809 
H    -2.3728803   -1.6599517   -0.8323763 
H    -3.5354870   -2.8075098   -2.5384394 
H    -7.1727688   -2.1508876   -0.8338801 
O    -5.9847145   -3.1968504   -2.8016010 
O    -6.3996100   -0.8287872    1.1207210 
C    -3.5677818   -0.3816406    1.3255031 
C    -2.1969649   -0.3875781    1.6404673 
H    -4.2776730    0.1041579    2.0036839 
H    -1.5704229   -1.2053104    1.2665298 
H    -1.9119477   -0.0058396    2.6260081 
