72
Energy = -1982.792292798
C     3.3729434   -0.6421483   -0.8688828 
C     2.4362258   -1.6287086   -1.2300710 
C     1.1708802   -1.1932358   -1.6741629 
N     0.8075291    0.0878302   -1.7439902 
C     1.7051673    1.0272337   -1.3662208 
C     3.0104824    0.7042787   -0.9398400 
H     3.6991743    1.4975205   -0.6373864 
H     4.3541251   -0.9486159   -0.4948458 
C     1.1647962    2.3908449   -1.3075810 
N     1.9325868    3.4621110   -0.9320574 
N     1.3112918    4.5616692   -0.6336028 
C    -0.0937372    4.4659538   -0.6240326 
N    -0.6342690    3.7383462   -1.6908986 
N    -0.0130205    2.6401286   -1.9713476 
C    -0.8055505    5.7427143   -0.2620572 
N    -0.3014642    6.4084654    0.7925412 
N    -1.8735030    6.0979001   -0.9927433 
C    -2.4802732    7.2459681   -0.6391970 
C    -2.0277234    8.0346345    0.4253738 
C    -0.9123914    7.5569574    1.1265103 
H    -0.5030243    8.1042824    1.9851408 
H    -3.3576023    7.5407876   -1.2293339 
H    -2.5253975    8.9678525    0.7032395 
C     2.7277714   -3.0741994   -0.9416257 
N     1.8710956   -3.9812913   -1.4899191 
O     3.6432810   -3.3996509   -0.1712481 
C     1.6866879   -5.3191670   -0.9415804 
H     1.2042422   -3.6688351   -2.1937285 
C     0.1989454   -5.6867115   -0.8905889 
H     2.2136739   -6.0849944   -1.5403597 
H     2.1411666   -5.3195186    0.0635285 
N    -0.6043833   -4.6604380   -0.2275695 
H    -0.2019829   -5.8181431   -1.9104817 
H     0.1017826   -6.6644582   -0.3797708 
C    -1.9271068   -4.5579543   -0.5085648 
H    -0.1914586   -4.0827651    0.5342688 
O    -2.5355491   -5.2632175   -1.3110552 
O    -2.5065614   -3.5353181    0.2177254 
C    -3.9942391   -3.4486464    0.3402046 
C    -4.5365466   -4.7731456    0.8924927 
C    -4.1933874   -2.3225591    1.3620908 
C    -4.5994833   -3.0722553   -1.0175370 
H    -4.4543344   -3.8815532   -1.7477012 
H    -5.6798121   -2.8814716   -0.8958030 
H    -4.1264495   -2.1516447   -1.4018650 
H    -3.6414536   -2.5391291    2.2922122 
H    -3.8569287   -1.3502916    0.9625558 
H    -5.2658623   -2.2313689    1.6011310 
H    -4.0305891   -5.0252656    1.8404210 
H    -5.6164024   -4.6658615    1.0916045 
H    -4.3889402   -5.5933569    0.1745253 
H     0.3865994   -1.9164241   -1.9341157 
C    -0.5565245    3.3356881    0.9818798 
C     0.2998225    2.2322810    1.1546290 
C    -0.0083387    0.8320212    1.1518966 
C    -1.1480453    0.1933927    0.6248757 
N    -1.0152833   -1.1590789    0.7436094 
C     0.8563687   -0.2418585    1.6196941 
C     2.1152570   -0.3884972    2.2780465 
N     2.9119999    0.6474257    2.6288420 
N     2.5778318   -1.6345085    2.5493815 
C     1.8420685   -2.6986624    2.2004629 
N     0.6369770   -2.7015899    1.6068020 
H    -0.3291049    4.2045933    1.6089482 
H    -1.6210888    3.1620455    0.7846135 
H     1.3126172    2.4872871    1.4863362 
H    -2.0232276    0.6309448    0.1454206 
H    -1.6752698   -1.8954035    0.4404067 
H     2.5596718    1.5987116    2.6668182 
H     3.7485594    0.4427639    3.1733197 
H     2.2728556   -3.6812924    2.4272220 
C     0.1911722   -1.4567519    1.3437756 
