72
Energy = -1982.793917806
C     1.9086379   -1.2304500    0.6408577 
C     0.7731162   -2.0379541    0.4606182 
C    -0.3216124   -1.4939355   -0.2435070 
N    -0.3505784   -0.2419202   -0.7195260 
C     0.7256507    0.5418669   -0.4966393 
C     1.8799534    0.0851302    0.1765982 
H     2.7239978    0.7625106    0.3249015 
H     2.7891312   -1.6252770    1.1571690 
C     0.6196961    1.9494221   -0.9220773 
N     1.6399358    2.8066129   -0.5830317 
N     1.4366737    4.0729676   -0.7404339 
C     0.1409230    4.4173001   -1.1460769 
N    -0.4099530    3.5795652   -2.1349745 
N    -0.2081628    2.3125519   -1.9558026 
C    -0.1281944    5.8873188   -1.3361503 
N     0.8249093    6.7512093   -0.9534778 
N    -1.3350149    6.1982238   -1.8404147 
C    -1.5947886    7.5055857   -2.0084630 
C    -0.6661963    8.4976917   -1.6666733 
C     0.5470249    8.0563642   -1.1240401 
H     1.3210113    8.7696611   -0.8124915 
H    -2.5781904    7.7656679   -2.4206360 
H    -0.8833942    9.5607221   -1.8030591 
C     0.7639726   -3.4707094    0.9211305 
N    -0.3270376   -3.8231584    1.6491556 
O     1.6880013   -4.2444483    0.6224131 
C    -0.5923609   -5.1874805    2.0864404 
H    -0.9291354   -3.0663208    2.0069493 
C    -1.4618325   -5.9642426    1.0762070 
H    -1.1083288   -5.1476198    3.0605299 
H     0.3730817   -5.7049129    2.2217911 
N    -0.7723944   -6.2316933   -0.1773739 
H    -2.3706136   -5.3864987    0.8418994 
H    -1.7656551   -6.9256022    1.5258233 
C    -0.8056451   -5.3716855   -1.2393883 
H     0.0130229   -6.8818507   -0.1565684 
O    -1.5614343   -4.4049873   -1.3418964 
O     0.0934544   -5.7811825   -2.1717960 
C     0.3949500   -4.9670320   -3.3699503 
C    -0.8409099   -4.9011254   -4.2775811 
C     1.5238711   -5.7668282   -4.0310571 
C     0.8877812   -3.5778507   -2.9408688 
H     0.0605691   -2.9711774   -2.5452913 
H     1.3273134   -3.0574766   -3.8092549 
H     1.6548415   -3.6779651   -2.1542675 
H     1.1835285   -6.7898857   -4.2662959 
H     2.3948493   -5.8306434   -3.3565906 
H     1.8359957   -5.2740980   -4.9672831 
H    -1.1820371   -5.9195203   -4.5328932 
H    -0.5837538   -4.3746540   -5.2131943 
H    -1.6596453   -4.3628321   -3.7764986 
H    -1.2013669   -2.1207109   -0.4358244 
C    -0.9730881    4.0951785    0.4668113 
C    -0.9804408    2.7443735    0.8685208 
C    -0.2744211    2.1783098    1.9854452 
C     0.8369168    2.7326384    2.6427182 
N     1.3370764    1.8320528    3.5389405 
C     0.5883162    0.6720611    3.5086630 
C    -0.4455478    0.8545425    2.5588662 
C    -1.3643559   -0.2322063    2.4584719 
N    -2.4960517   -0.2056764    1.7249449 
N    -1.1012158   -1.3756333    3.1448702 
C    -0.0405469   -1.4126920    3.9756716 
N     0.8295273   -0.4311822    4.2405544 
H    -1.8680590    4.4537817   -0.0517201 
H    -0.4937015    4.8300036    1.1235513 
H    -1.6933951    2.0880586    0.3580414 
H     1.3242457    3.6956105    2.4932644 
H     2.1557328    1.9803895    4.1293028 
H    -2.7610553    0.5940664    1.1611375 
H    -3.0844981   -1.0349444    1.6846658 
H     0.1238567   -2.3686680    4.4905229 
