72
Energy = -1982.791341219
C     1.3244743   -2.9961542    1.8631803 
C     0.1151532   -3.6991521    1.7184994 
C    -0.9342209   -3.0540312    1.0327621 
N    -0.8321538   -1.8264843    0.5097735 
C     0.3409737   -1.1776234    0.6321487 
C     1.4446789   -1.7157247    1.3193325 
H     2.3731291   -1.1450901    1.3928325 
H     2.1601355   -3.4772777    2.3801082 
C     0.4139769    0.1639201   -0.0329741 
N     1.6194047    0.8575256    0.1124225 
N     1.6826108    2.0058620   -0.4810562 
C     0.6080711    2.3663469   -1.2552553 
N    -0.0963080    1.3795029   -1.8932943 
N    -0.1490624    0.2175818   -1.3242070 
C     0.4965064    3.7670974   -1.7115145 
N     1.4191834    4.6350096   -1.2480450 
N    -0.5578261    4.0663960   -2.4961754 
C    -0.6911123    5.3541776   -2.8491406 
C     0.2077421    6.3434313   -2.4260098 
C     1.2655426    5.9175610   -1.6118776 
H     2.0063706    6.6307624   -1.2280300 
H    -1.5516907    5.6061982   -3.4818870 
H     0.0829356    7.3925464   -2.7061920 
C     0.0548449   -5.1209941    2.2095438 
N    -1.1802063   -5.6992575    2.2550196 
O     1.0906940   -5.7186118    2.5390696 
C    -1.3466130   -7.1435202    2.3429456 
H    -1.9839752   -5.1629302    1.9326250 
C    -1.4896009   -7.7681454    0.9358719 
H    -2.2384130   -7.3807202    2.9472276 
H    -0.4567865   -7.5437153    2.8536101 
N    -0.3891274   -7.4148168    0.0534841 
H    -2.4160187   -7.4110414    0.4576062 
H    -1.5485732   -8.8663567    1.0295313 
C    -0.4533773   -6.3457315   -0.7994385 
H     0.5403336   -7.7794225    0.2615723 
O    -1.4799389   -5.7139518   -1.0524425 
O     0.7761792   -6.1118547   -1.3248029 
C     0.9816540   -5.1528630   -2.4375161 
C     0.1580263   -5.5987855   -3.6530845 
C     2.4847339   -5.2876042   -2.7071358 
C     0.6343142   -3.7294479   -1.9852948 
H    -0.4419295   -3.6255980   -1.7904676 
H     0.9254626   -3.0101370   -2.7699390 
H     1.1871737   -3.4781293   -1.0649217 
H     2.7362366   -6.3255876   -2.9844512 
H     3.0606242   -5.0130064   -1.8067286 
H     2.7799036   -4.6186299   -3.5329887 
H     0.4056066   -6.6405809   -3.9211966 
H     0.3941277   -4.9509292   -4.5148240 
H    -0.9198893   -5.5279794   -3.4405007 
H    -1.8936956   -3.5574650    0.8598933 
C    -0.8905370    1.1845872    1.1110337 
C    -0.9907801    2.5422955    0.7563307 
C    -0.3265043    3.6307472    1.4160376 
C     0.7826380    3.5195309    2.2742885 
N     1.2469965    4.7608432    2.5890867 
C     0.4764172    5.7244698    1.9643875 
C    -0.5345019    5.0568340    1.2317941 
C    -1.4532441    5.9181416    0.5616096 
N    -2.5242269    5.4794292   -0.1398840 
N    -1.2502366    7.2594763    0.6023811 
C    -0.2144032    7.7390828    1.3116399 
N     0.6813833    7.0505471    2.0366059 
H    -1.7044475    0.5193389    0.8057464 
H    -0.4256009    0.9337438    2.0707179 
H    -1.7183695    2.7974064   -0.0216522 
H     1.2879390    2.6277076    2.6434240 
H     2.0547842    4.9561650    3.1805937 
H    -2.8416108    4.5171601   -0.0898362 
H    -3.1609110    6.1671947   -0.5372490 
H    -0.0945741    8.8312357    1.3009067 
