68
Energy = -1946.366345504
N     1.5157604   -3.8635288   -2.2814094 
C     2.5024083   -3.9238950   -1.3615570 
C     3.0840337   -2.7854085   -0.7821666 
C     2.5505199   -1.5343346   -1.0970075 
C     1.4680852   -1.4662210   -1.9958963 
C     1.0189740   -2.6665011   -2.5981235 
C     0.7525851   -0.2076932   -2.2307006 
N    -0.3940146   -0.2362213   -2.9571848 
N    -1.1799228    0.8156025   -2.9041439 
C    -0.7824288    1.8536514   -2.1285811 
N     0.5062899    2.0164325   -1.7536860 
N     1.2915790    0.9596687   -1.8012540 
C    -1.7722491    2.9130135   -1.7948701 
N    -3.0520854    2.6576598   -2.1211963 
N    -1.3053146    4.0048113   -1.1634494 
C    -2.2150864    4.9407869   -0.8467713 
C    -3.5755384    4.7907162   -1.1502340 
C    -3.9480828    3.6035238   -1.7961785 
H    -4.9952800    3.4030893   -2.0554545 
H    -1.8446758    5.8358110   -0.3311846 
H    -4.3105695    5.5563514   -0.8872832 
C     2.8928988   -5.2891400   -0.8502786 
N     2.1499310   -6.3089225   -1.3444935 
O     3.7796773   -5.4261948    0.0114878 
C     2.2401863   -7.6580750   -0.8001039 
H     1.3841880   -6.0574235   -1.9764621 
C     1.2486863   -7.9016663    0.3478446 
H     2.0482776   -8.3864011   -1.6035773 
H     3.2741077   -7.7965423   -0.4431152 
N     1.3936858   -6.8530757    1.3634243 
H     1.4349547   -8.9060994    0.7740030 
H     0.2120828   -7.8675594   -0.0235907 
C     0.5562835   -6.8234752    2.4588147 
H     2.3273097   -6.4494254    1.4917046 
O    -0.4669624   -7.4944728    2.5549220 
O     1.0149127   -5.9128993    3.3450660 
C     0.2073231   -5.4844571    4.5150923 
C     1.0846571   -4.3849253    5.1230933 
C    -1.1322448   -4.9082055    4.0362965 
C     0.0337831   -6.6670922    5.4762953 
H     1.0186179   -7.0876789    5.7436643 
H    -0.5811051   -7.4561674    5.0170379 
H    -0.4599342   -6.3199547    6.4003786 
H     1.2500731   -3.5885747    4.3781826 
H     0.5883197   -3.9535447    6.0086752 
H     2.0618623   -4.7956044    5.4300273 
H     3.8924582   -2.9037617   -0.0571139 
H     2.9291660   -0.6237983   -0.6243350 
H     0.2116503   -2.6393814   -3.3378830 
C    -0.9877025   -2.1522791    0.1053435 
C    -0.0883644   -3.1397287    0.7275726 
N    -0.2291876   -4.4512217    0.2422931 
C    -1.0592915   -4.8936170   -0.7732063 
N    -1.8799536   -3.8938757   -1.2876317 
C    -1.8466287   -2.5906338   -0.8761525 
H    -2.5172770   -4.1761863   -2.0338511 
H     0.4135346   -5.1657572    0.6270980 
O    -1.0743481   -6.0495774   -1.1906469 
O     0.7443633   -2.8906283    1.6023268 
C    -0.8736093   -0.7621012    0.5538153 
C    -1.7041878    0.2687097    0.2753716 
H    -0.0064567   -0.5864733    1.2028805 
H    -2.6077647    0.1637415   -0.3369494 
H    -1.5021141    1.2643925    0.6833195 
H    -1.7380878   -5.6786923    3.5357782 
H    -0.9533432   -4.0725079    3.3399603 
H    -1.6929734   -4.5245601    4.9059133 
H    -2.5337514   -1.9238189   -1.4030595 
