72
Energy = -1982.817422273
C     8.5458465   -3.8150784   -2.6071638 
C     7.8399692   -4.9351110   -3.0726160 
N     6.7426880   -4.8443985   -3.8550854 
C     6.2997982   -3.6316404   -4.1872020 
C     6.9242164   -2.4388577   -3.7501778 
C     8.0758377   -2.5438425   -2.9442715 
H     8.5762133   -1.6418623   -2.5823339 
H     9.4208720   -3.9598425   -1.9693291 
C     6.3290455   -1.1435496   -4.0919493 
N     6.8761838   -0.0053368   -3.5972855 
N     6.1821651    1.1078126   -3.6950856 
C     4.9560418    1.0256157   -4.2682478 
N     4.6066735   -0.0026898   -5.0728638 
N     5.3143155   -1.1076962   -4.9959889 
C     4.0257079    2.1765524   -4.1216087 
N     4.2962542    3.0259728   -3.1131587 
N     2.9902136    2.2465472   -4.9766511 
C     2.1567648    3.2871270   -4.8122852 
C     2.3473443    4.2447194   -3.8064082 
C     3.4512765    4.0590406   -2.9629168 
H     3.6606761    4.7539488   -2.1400467 
H     1.3091316    3.3553755   -5.5059071 
H     1.6633370    5.0882991   -3.6795824 
C     8.2480226   -6.3227453   -2.6336869 
N     7.4347098   -7.2955909   -3.1075092 
O     9.2069116   -6.5170985   -1.8719594 
C     7.4076057   -8.6380002   -2.5447204 
H     6.6399687   -6.9560692   -3.6599872 
C     6.0340656   -9.2796028   -2.7493100 
H     8.1736398   -9.2846504   -3.0112720 
H     7.6607811   -8.5641881   -1.4707535 
N     4.9638668   -8.4051608   -2.2744548 
H     5.8558416   -9.4861655   -3.8188679 
H     6.0220931  -10.2538150   -2.2242329 
C     3.7198547   -8.4996150   -2.8045689 
H     5.1663579   -7.7092503   -1.5253632 
O     3.3745189   -9.3169844   -3.6561257 
O     2.8916179   -7.5350747   -2.2697989 
C     1.4143072   -7.6047757   -2.4700576 
C     0.8945667   -8.9617717   -1.9777865 
C     0.8921885   -6.4745272   -1.5746064 
C     1.0862290   -7.3382358   -3.9443483 
H     1.4744059   -8.1460917   -4.5818454 
H    -0.0081897   -7.2704457   -4.0700285 
H     1.5315711   -6.3805003   -4.2661990 
H     1.2369088   -6.6128259   -0.5360727 
H     1.2299236   -5.4872456   -1.9333078 
H    -0.2104061   -6.4776766   -1.5853898 
H     1.2070956   -9.1320209   -0.9330460 
H    -0.2081392   -8.9615245   -2.0158504 
H     1.2710645   -9.7826185   -2.6057820 
C     3.7151635   -0.4851083   -1.8551313 
C     4.6683086   -1.3320125   -1.3963428 
C     4.6327474   -2.7917152   -1.3795507 
C     3.7321390   -3.6296506   -2.0452229 
N     4.0426445   -4.9476104   -1.7966602 
C     5.5453524   -3.6817116   -0.6848262 
C     6.6848890   -3.5829123    0.1695765 
N     7.2442557   -2.4055511    0.5450463 
N     7.2868633   -4.7149549    0.6112767 
C     6.7903949   -5.9067561    0.2414139 
N     5.7231181   -6.1438463   -0.5351392 
H     3.8565325    0.5970871   -1.7752544 
H     2.7690249   -0.8361003   -2.2836897 
H     5.5769030   -0.8756118   -0.9833724 
H     2.8974643   -3.3722569   -2.6972731 
H     3.5472502   -5.7877597   -2.1326801 
H     6.7318071   -1.5330239    0.4596218 
H     7.9896223   -2.4346370    1.2391269 
H     7.3222603   -6.7894316    0.6183919 
C     5.1375107   -5.0085419   -0.9750758 
H     5.4027840   -3.5806690   -4.8135686 
