72
Energy = -1982.793713985
C     0.2083659    1.1988811   -1.9991546 
C     1.1248098    2.0298496   -1.3342988 
N     1.9903123    1.5726941   -0.4039414 
C     1.9855224    0.2656613   -0.1210945 
C     1.1610948   -0.6687834   -0.7919812 
C     0.2467531   -0.1733182   -1.7449736 
H    -0.4026436   -0.8663155   -2.2860624 
H    -0.4844453    1.6344972   -2.7232255 
C     1.2656858   -2.1093191   -0.5290899 
N     0.7219736   -2.9810545   -1.4448351 
N     0.6720288   -4.2334289   -1.1274864 
C     1.1017166   -4.5406131    0.1737580 
N     2.2386162   -3.8386062    0.6055824 
N     2.2568504   -2.5827758    0.2966809 
C     1.0461356   -6.0061749    0.5193665 
N    -0.0027057   -6.6810947    0.0158338 
N     2.0069829   -6.4995071    1.3148903 
C     1.9202441   -7.8100904    1.6084285 
C     0.8889299   -8.6193313    1.1168028 
C    -0.0710362   -7.9889201    0.3132325 
H    -0.9238942   -8.5456707   -0.0956966 
H     2.7016684   -8.2214310    2.2603393 
H     0.8271316   -9.6839600    1.3587568 
C     1.2252624    3.4809727   -1.7399453 
N     2.3738489    4.0947807   -1.3538651 
O     0.3531003    4.0235113   -2.4389862 
C     2.7324319    5.4230836   -1.8278851 
H     2.9960301    3.5613900   -0.7422310 
C     2.3530912    6.5520472   -0.8459274 
H     3.8165461    5.4568101   -2.0270175 
H     2.1975448    5.5730584   -2.7810656 
N     0.9882653    6.3973654   -0.3591074 
H     3.0082586    6.5429776    0.0393239 
H     2.4794105    7.5233137   -1.3576810 
C     0.7648004    5.9599584    0.9199997 
H     0.2765132    6.1369114   -1.0458532 
O     1.5934236    6.0061113    1.8287640 
O    -0.5065061    5.4996307    1.0330747 
C    -0.9884989    4.9123096    2.3026430 
C    -1.0570671    6.0016825    3.3815215 
C    -2.3905924    4.4203903    1.9237208 
C    -0.0795999    3.7423589    2.7134155 
H     0.8933858    4.1029741    3.0765644 
H    -0.5664614    3.1613518    3.5163858 
H     0.1031052    3.0805694    1.8491762 
H    -3.0160050    5.2682628    1.5948950 
H    -2.3481301    3.6836677    1.1020467 
H    -2.8725813    3.9504857    2.7981648 
H    -1.6890515    6.8388061    3.0379786 
H    -1.5020953    5.5829902    4.3008370 
H    -0.0501884    6.3813710    3.6135355 
C    -0.3442030   -3.8746862    1.3783213 
C    -0.7286451   -2.5586650    1.0588914 
C    -1.7895852   -2.2228042    0.1554666 
C    -2.4242520   -3.1060801   -0.7395688 
N    -3.2947123   -2.4140918   -1.5276820 
C    -3.2767826   -1.0722296   -1.1871262 
C    -2.3517493   -0.9145573   -0.1280813 
C    -2.2327546    0.4119707    0.3728212 
N    -1.4053522    0.7515886    1.3957558 
N    -2.9371284    1.4061471   -0.2156357 
C    -3.7531377    1.1042385   -1.2407254 
N    -3.9957516   -0.1027485   -1.7773973 
H     0.2304394   -4.0196980    2.2983402 
H    -1.0401759   -4.6835102    1.1333419 
H    -0.2545564   -1.7451603    1.6157012 
H    -2.2716978   -4.1757428   -0.8827956 
H    -3.8699534   -2.8193265   -2.2665742 
H    -1.0810757    0.0430707    2.0478676 
H    -1.5128418    1.6885019    1.7775549 
H    -4.2929960    1.9514923   -1.6848200 
H     2.6885025   -0.0809763    0.6454059 
