68
Energy = -1946.345452802
N     0.6947778   -2.1790826   -2.2083297 
C     1.5559916   -2.6574780   -1.2863562 
C     2.2386073   -1.8334507   -0.3763620 
C     2.0160704   -0.4578767   -0.4259456 
C     1.0980093    0.0523739   -1.3653122 
C     0.4644598   -0.8628836   -2.2384663 
C     0.7924540    1.4871151   -1.4219688 
N    -0.0124526    1.9653169   -2.4366716 
N    -0.3984657    3.1936387   -2.3744336 
C    -0.0885633    3.8425063   -1.1610738 
N     1.2299040    3.6085137   -0.7108756 
N     1.6362542    2.3835346   -0.8147857 
C    -0.4836430    5.2927216   -1.0393828 
N    -1.0194908    5.9065424   -2.1017549 
N    -0.2429545    5.8392911    0.1670561 
C    -0.5464399    7.1391064    0.3107852 
C    -1.0966258    7.8878778   -0.7386750 
C    -1.3253169    7.2088157   -1.9410712 
H    -1.7663264    7.7206650   -2.8058279 
H    -0.3515193    7.5885643    1.2922748 
H    -1.3445823    8.9461454   -0.6196169 
C     1.7727737   -4.1507512   -1.2397402 
N     1.1547146   -4.8327716   -2.2387323 
O     2.4729154   -4.6753216   -0.3588572 
C     1.0958948   -6.2833940   -2.2624578 
H     0.5362536   -4.2747169   -2.8348096 
C    -0.2562037   -6.8150072   -1.7289504 
N    -0.6463261   -6.1829318   -0.4780929 
H    -0.1865403   -7.9079406   -1.5919482 
H    -1.0597597   -6.6075118   -2.4530915 
C    -1.4564048   -5.0761623   -0.4815946 
H    -0.0425341   -6.3032558    0.3359115 
O    -2.1277703   -4.7142536   -1.4479976 
O    -1.4204723   -4.4734567    0.7321064 
C    -2.3286336   -3.3439656    1.0571325 
C    -1.9734630   -3.0464265    2.5179680 
C    -2.0106482   -2.1422734    0.1570668 
C    -3.7862687   -3.8087773    0.9297841 
H    -3.9536488   -4.7098783    1.5454425 
H    -4.0365421   -4.0375106   -0.1172601 
H    -4.4575298   -3.0108012    1.2915652 
H    -0.9188824   -2.7405333    2.6022988 
H    -2.6000824   -2.2188451    2.8911920 
H    -2.1510263   -3.9372103    3.1450685 
H     2.9228189   -2.2841056    0.3467453 
H     2.5339373    0.2228373    0.2554583 
H    -0.2485150   -0.4975922   -2.9865198 
C     0.1585300    1.8909624    1.7481658 
C     0.5686022    0.6394608    2.4126841 
N     1.5048214    0.8168040    3.4457986 
C     2.0530674    2.0017233    3.9089459 
N     1.5902061    3.1302423    3.2164368 
C     0.6994278    3.0897622    2.1985265 
H     0.4547364    4.0584537    1.7434802 
H     1.9731149    4.0263154    3.5250873 
H     1.8094164   -0.0310952    3.9316807 
O     2.8593627    2.0773903    4.8249197 
O     0.1601724   -0.4834667    2.1278434 
C    -0.7571457    1.8250787    0.6447811 
C    -1.3414785    2.9678779    0.0605340 
H    -1.0689802    0.8217993    0.3382115 
H    -1.4543663    3.8483830    0.7017238 
H    -2.1737089    2.8064462   -0.6318100 
H     1.9221207   -6.6430105   -1.6280351 
H     1.2558805   -6.6522327   -3.2903820 
H    -2.2039442   -2.3822634   -0.8983406 
H    -0.9584006   -1.8436390    0.2820307 
H    -2.6447766   -1.2901716    0.4578603 
