68
Energy = -1946.346947562
N     1.3400649   -2.8417524   -1.3123213 
C     1.7492634   -3.6065415   -0.2798220 
C     2.2235819   -3.0707807    0.9280230 
C     2.2581538   -1.6810481    1.0741945 
C     1.8266027   -0.8754241    0.0053779 
C     1.3812243   -1.5118180   -1.1724890 
C     1.7871483    0.6128019    0.1230384 
N     1.8395330    1.3256651   -1.0895315 
N     1.8152965    2.6107351   -0.9814885 
C     1.8203607    3.1311433    0.2951119 
N     2.5182102    2.4486809    1.2637012 
N     2.5677569    1.1640840    1.1576582 
C     1.5467706    4.5750051    0.4751186 
N     1.0803313    5.2380022   -0.6014124 
N     1.7257867    5.0782691    1.7114600 
C     1.4068433    6.3698468    1.8772466 
C     0.9145148    7.1607353    0.8282191 
C     0.7726059    6.5328630   -0.4143136 
H     0.3885952    7.0789196   -1.2855390 
H     1.5431882    6.7876810    2.8831184 
H     0.6516327    8.2118322    0.9752400 
C     1.6391889   -5.1051555   -0.4341096 
N     1.1397422   -5.5027136   -1.6326563 
O     1.9739216   -5.8766186    0.4787897 
C     0.7403048   -6.8772803   -1.8806108 
H     0.8345102   -4.7491497   -2.2552833 
C    -0.7543796   -7.1075965   -1.5481498 
H     0.9311283   -7.1376350   -2.9350727 
H     1.3700774   -7.5167468   -1.2407830 
N    -1.1093590   -6.5725138   -0.2409143 
H    -0.9710592   -8.1893750   -1.5866818 
H    -1.3961488   -6.5990177   -2.2848763 
C    -1.6579757   -5.3206543   -0.1242983 
H    -0.5706137   -6.8957579    0.5642923 
O    -2.2038796   -4.7098104   -1.0424368 
O    -1.5223394   -4.8799033    1.1524760 
C    -2.1894659   -3.6411559    1.6167426 
C    -1.7782848   -3.5817491    3.0922597 
C    -1.6446530   -2.4249302    0.8552934 
C    -3.7093413   -3.7919796    1.4679474 
H    -4.0535651   -4.7031321    1.9871860 
H    -3.9935895   -3.8532878    0.4061928 
H    -4.2120003   -2.9205211    1.9216870 
H    -0.5514654   -2.3602080    0.9796028 
H    -2.0970355   -1.5076695    1.2697346 
H    -1.8788381   -2.4909371   -0.2169769 
H    -0.6791496   -3.5354338    3.1795098 
H    -2.2092867   -2.6843251    3.5672581 
H    -2.1378734   -4.4751805    3.6305917 
H     2.5385670   -3.7459131    1.7276142 
H     2.6098898   -1.2187677    2.0006324 
H     1.0452469   -0.9120895   -2.0268553 
C    -1.1510070    3.0169069   -0.1674536 
C    -1.6780084    4.3366818    0.2236021 
N    -2.3433857    5.0217958   -0.8049417 
C    -2.5298802    4.6184185   -2.1170770 
N    -1.9942628    3.3517313   -2.3833109 
C    -1.3452828    2.5914794   -1.4681516 
H    -0.9725864    1.6342019   -1.8411406 
H    -2.1137905    3.0098169   -3.3389741 
H    -2.7285377    5.9386368   -0.5637709 
O    -3.1039788    5.2838334   -2.9678327 
O    -1.5713172    4.8395629    1.3417373 
C    -0.4112184    2.2716650    0.8243703 
C    -0.0729255    0.9051099    0.7440278 
H    -0.2926198    2.7841131    1.7850405 
H    -0.5516689    0.2971178   -0.0306705 
H     0.0778835    0.3818298    1.6929419 
