72
Energy = -1982.812216046
C     3.7283010   -2.9248127   -1.6355893 
C     3.3817137   -3.7848329   -2.6909297 
N     2.3927936   -3.5131805   -3.5680382 
C     1.7198710   -2.3671339   -3.4316882 
C     1.9995676   -1.4268047   -2.4123490 
C     3.0264761   -1.7262986   -1.4936062 
H     3.2622990   -1.0242472   -0.6892527 
H     4.5325224   -3.2101586   -0.9529733 
C     1.2270988   -0.1782388   -2.3148583 
N     1.5418716    0.7162739   -1.3453955 
N     0.6811621    1.6903227   -1.1207162 
C    -0.4121868    1.7645958   -1.9096429 
N    -0.4947776    1.1193306   -3.0987406 
N     0.3271189    0.1113513   -3.2893773 
C    -1.5178467    2.6777463   -1.5155979 
N    -1.5428939    3.0467660   -0.2223977 
N    -2.4058273    3.0139304   -2.4676111 
C    -3.4268472    3.7920186   -2.0734893 
C    -3.5616075    4.2327895   -0.7495298 
C    -2.5701354    3.8252842    0.1531722 
H    -2.6076610    4.1202589    1.2087682 
H    -4.1641096    4.0649888   -2.8383424 
H    -4.4024612    4.8555538   -0.4342915 
C     4.1260199   -5.0900339   -2.8609813 
N     3.7213931   -5.8174209   -3.9326694 
O     5.0251871   -5.4278163   -2.0757450 
C     4.1957207   -7.1678508   -4.1795840 
H     2.9170376   -5.4429425   -4.4439204 
C     3.2422489   -8.2301085   -3.5830824 
H     4.3023086   -7.3320287   -5.2650518 
H     5.1901076   -7.2507620   -3.7112231 
N     2.9204115   -7.9513022   -2.1910929 
H     2.2893341   -8.2449273   -4.1354314 
H     3.7102501   -9.2259637   -3.6701166 
C     1.7919864   -7.2444304   -1.8628920 
H     3.6953045   -7.8814726   -1.5299233 
O     0.8269421   -7.0847628   -2.6094629 
O     1.9009883   -6.7768379   -0.5934892 
C     0.7637947   -6.1115301    0.0835864 
C    -0.4156286   -7.0886559    0.1863092 
C     1.3450374   -5.7983362    1.4669691 
C     0.3887138   -4.8187328   -0.6525744 
H     0.0237905   -5.0316584   -1.6677561 
H    -0.4021181   -4.2984353   -0.0869558 
H     1.2626978   -4.1498601   -0.7212597 
H     1.6526363   -6.7276004    1.9762097 
H     2.2258875   -5.1406354    1.3704992 
H     0.5882785   -5.2884462    2.0865939 
H    -0.0939432   -8.0230374    0.6781442 
H    -1.2180975   -6.6336516    0.7920350 
H    -0.8144265   -7.3262141   -0.8117628 
C    -0.9739401   -1.4784678   -0.7475998 
C    -1.8618628   -0.5038479   -0.4354783 
C    -3.0353905   -0.1152328   -1.2128934 
C    -3.2410822   -0.3435137   -2.5764466 
N    -4.4145471    0.2478176   -2.9791834 
C    -5.0001209    0.8858629   -1.9117124 
C    -4.1698963    0.6754776   -0.7782750 
C    -4.6532976    1.2592036    0.4302683 
N    -4.0020044    1.1683670    1.6177716 
N    -5.8000822    1.9818963    0.4089940 
C    -6.4627263    2.1115780   -0.7562798 
N    -6.1458322    1.5945667   -1.9511299 
H    -0.1016189   -1.6641613   -0.1139073 
H    -1.1006759   -2.1292230   -1.6204950 
H    -1.6726216    0.0870780    0.4707910 
H    -2.6088815   -0.8604440   -3.2967355 
H    -4.7740712    0.2575226   -3.9326184 
H    -3.2650409    0.4840228    1.7590633 
H    -4.4703471    1.5251573    2.4489208 
H    -7.3807324    2.7144939   -0.7152857 
H     0.9216277   -2.1674121   -4.1553741 
