68
Energy = -1946.346351133
N     2.6457003   -1.4618556   -0.0639977 
C     3.3598126   -1.1847534    1.0457336 
C     2.8700809   -0.3871709    2.0920734 
C     1.5871456    0.1537804    1.9743541 
C     0.8412795   -0.1148818    0.8128029 
C     1.4187000   -0.9395903   -0.1756460 
C    -0.5321915    0.4419416    0.6341526 
N    -0.9927209    0.5281112   -0.6919596 
N    -2.1735581    1.0261518   -0.8414256 
C    -2.8076008    1.4830093    0.2937741 
N    -2.0316565    2.0347074    1.2851692 
N    -0.8410111    1.5602332    1.4327308 
C    -4.2447155    1.8295375    0.2158219 
N    -4.8942958    1.4578576   -0.9049447 
N    -4.7858411    2.4245015    1.2962826 
C    -6.1029672    2.6681636    1.2412361 
C    -6.8820946    2.3272355    0.1253911 
C    -6.2125600    1.7170855   -0.9412445 
H    -6.7495069    1.4140529   -1.8493009 
H    -6.5544174    3.1469261    2.1198567 
H    -7.9570510    2.5245707    0.0928588 
C     4.7635487   -1.7347739    1.1312954 
N     5.1354308   -2.4804477    0.0588770 
O     5.4926193   -1.4977295    2.1077109 
C     6.5152316   -2.8857634   -0.1475038 
H     4.4584956   -2.5187579   -0.7085522 
C     7.2932743   -1.8542617   -1.0025714 
H     6.5464250   -3.8735248   -0.6368220 
H     6.9770478   -2.9720436    0.8494411 
N     7.0758284   -0.4893054   -0.5435227 
H     8.3696121   -2.0972055   -0.9716629 
H     6.9589997   -1.8932556   -2.0512850 
C     6.1076276    0.2924790   -1.1220203 
H     7.2923334   -0.2773073    0.4317172 
O     5.6118163    0.0809796   -2.2282727 
O     5.8056901    1.3302244   -0.3014194 
C     4.9358639    2.4437290   -0.7523860 
C     4.9316110    3.3696269    0.4690812 
C     3.5208906    1.9277911   -1.0462127 
C     5.5747216    3.1300993   -1.9673648 
H     6.6087511    3.4360836   -1.7314687 
H     5.5888858    2.4538479   -2.8358640 
H     4.9946463    4.0321944   -2.2275887 
H     3.0978871    1.4470417   -0.1496848 
H     2.8723803    2.7779900   -1.3194864 
H     3.5298315    1.2006809   -1.8707859 
H     4.5285717    2.8378965    1.3480640 
H     4.3005651    4.2520551    0.2694342 
H     5.9550798    3.7105826    0.7008218 
H     3.5010708   -0.1995826    2.9643943 
H     1.1683751    0.7901227    2.7589014 
H     0.8623747   -1.1690563   -1.0919837 
C    -3.8774422   -1.3311415    0.2372629 
C    -5.3355634   -1.2159592    0.4176782 
N    -6.0931114   -1.7434570   -0.6397513 
C    -5.6344790   -2.3169962   -1.8143364 
N    -4.2371953   -2.3811396   -1.8844855 
C    -3.4036083   -1.9203552   -0.9198117 
H    -2.3378559   -2.0307191   -1.1350976 
H    -3.8531951   -2.8032238   -2.7322970 
H    -7.1100205   -1.6857479   -0.5417292 
O    -6.3599253   -2.7340092   -2.7067991 
O    -5.8920654   -0.7107730    1.3923963 
C    -3.0302068   -0.7643795    1.2612258 
C    -1.6503353   -1.0052319    1.4168798 
H    -3.5703117   -0.2690653    2.0752947 
H    -1.1961791   -1.8225060    0.8463381 
H    -1.2424883   -0.8772021    2.4240767 
