72
Energy = -1982.811421862
C     2.5652936   -2.7997746   -0.7781547 
C     1.8663341   -4.0014149   -0.9783661 
N     0.6274276   -4.0555148   -1.5110461 
C     0.0345849   -2.9089200   -1.8543115 
C     0.6515005   -1.6451842   -1.6933465 
C     1.9500407   -1.6015750   -1.1471950 
H     2.4555716   -0.6412006   -1.0167480 
H     3.5698440   -2.8282628   -0.3491278 
C    -0.0661585   -0.4118223   -2.0461509 
N     0.6136825    0.7624280   -1.9682389 
N    -0.0474443    1.8803546   -2.1655718 
C    -1.3810243    1.7868828   -2.4031227 
N    -2.0218508    0.6239777   -2.6408099 
N    -1.3451040   -0.5026796   -2.4728167 
C    -2.1620411    3.0556479   -2.4773899 
N    -1.4676344    4.1993924   -2.3436100 
N    -3.4908729    2.9391746   -2.6574067 
C    -4.1885738    4.0850530   -2.6774470 
C    -3.5739421    5.3360792   -2.5320756 
C    -2.1819888    5.3353845   -2.3742659 
H    -1.6232627    6.2734056   -2.2640790 
H    -5.2742520    4.0001503   -2.8135114 
H    -4.1509170    6.2647776   -2.5448056 
C     2.5304421   -5.3118742   -0.6223076 
N     1.7528021   -6.4010788   -0.8480917 
O     3.6845771   -5.3485298   -0.1686717 
C     2.2793978   -7.7530152   -0.7844707 
H     0.8552247   -6.2128263   -1.3041959 
C     2.7161723   -8.2614227   -2.1800273 
H     1.5185986   -8.4324502   -0.3644401 
H     3.1450878   -7.7289218   -0.1029185 
N     3.5608347   -7.3022429   -2.8758829 
H     1.8346438   -8.4321857   -2.8178691 
H     3.2526880   -9.2188822   -2.0641575 
C     3.0166557   -6.3869304   -3.7398018 
H     4.4480954   -7.0413244   -2.4440104 
O     1.8909334   -6.4755477   -4.2289359 
O     3.9131493   -5.3968655   -3.9819716 
C     3.6577958   -4.3586033   -5.0093650 
C     3.4940637   -5.0238924   -6.3827972 
C     4.9395336   -3.5199076   -4.9512107 
C     2.4369470   -3.5159752   -4.6160306 
H     1.5253861   -4.1302931   -4.5943062 
H     2.3064258   -2.6981623   -5.3454617 
H     2.5904518   -3.0689364   -3.6202444 
H     5.8190610   -4.1406273   -5.1932835 
H     5.0733377   -3.0964085   -3.9410102 
H     4.8799906   -2.6913989   -5.6769239 
H     4.3670840   -5.6624918   -6.6028174 
H     3.4264513   -4.2452415   -7.1619803 
H     2.5816296   -5.6386268   -6.4137346 
C    -1.2609363   -2.1376196    0.9146095 
C    -1.8064849   -0.9051715    0.7959170 
C    -1.1062359    0.3735698    0.8842433 
C     0.2542183    0.5804241    1.1467297 
N     0.5219507    1.9270754    1.2130978 
C    -0.6354646    2.6405816    1.0129378 
C    -1.6791771    1.7022216    0.7796059 
C    -2.9538298    2.2868985    0.5163604 
N    -4.0582388    1.5557018    0.1919993 
N    -3.1004735    3.6289757    0.5992061 
C    -2.0198047    4.3835400    0.8783698 
N    -0.7576034    3.9795201    1.0711715 
H    -1.8809956   -3.0358960    0.8339083 
H    -0.1910784   -2.2912448    1.0980420 
H    -2.8888250   -0.8455580    0.6322189 
H     1.0482251   -0.1449204    1.3201633 
H     1.4343563    2.3387799    1.4050345 
H    -3.9293596    0.6453222   -0.2446363 
H    -4.8504535    2.0886281   -0.1668687 
H    -2.1995853    5.4657831    0.9354254 
H    -0.9724882   -2.9723079   -2.2794100 
