72
Energy = -1982.812142775
C     3.7954972   -2.7862383   -1.6495059 
C     3.4781091   -3.6673775   -2.6968327 
N     2.5483194   -3.3919836   -3.6348204 
C     1.9059605   -2.2219045   -3.5684043 
C     2.1629514   -1.2591084   -2.5645984 
C     3.1298479   -1.5615754   -1.5835540 
H     3.3483924   -0.8406764   -0.7910820 
H     4.5519784   -3.0751954   -0.9157182 
C     1.4291171    0.0158744   -2.5453510 
N     1.7187858    0.9172095   -1.5724838 
N     0.9399634    1.9674381   -1.4405222 
C    -0.1438121    2.0325910   -2.2530352 
N    -0.2299984    1.3287218   -3.4012890 
N     0.6017838    0.3196633   -3.5765634 
C    -1.2245659    3.0000774   -1.9247687 
N    -0.9539022    3.9297678   -0.9919181 
N    -2.3903280    2.8212806   -2.5713077 
C    -3.3875630    3.6563821   -2.2392476 
C    -3.2254082    4.6600487   -1.2746780 
C    -1.9631245    4.7560808   -0.6724945 
H    -1.7584741    5.5126359    0.0948565 
H    -4.3468159    3.5098424   -2.7501914 
H    -4.0450654    5.3285632   -0.9999185 
C     4.1884138   -4.9997188   -2.7844807 
N     3.8266691   -5.7445247   -3.8592442 
O     5.0272772   -5.3401910   -1.9364033 
C     4.2618629   -7.1184621   -4.0385228 
H     3.0626748   -5.3620153   -4.4238275 
C     3.2059199   -8.1251665   -3.5259324 
H     4.4672792   -7.3091369   -5.1056569 
H     5.2003942   -7.2347068   -3.4724981 
N     2.7783077   -7.8287613   -2.1674583 
H     2.3064479   -8.0903203   -4.1608926 
H     3.6253337   -9.1449979   -3.5721458 
C     1.6768885   -7.0490131   -1.9305773 
H     3.4771337   -7.8608288   -1.4245150 
O     0.8200327   -6.7789576   -2.7716587 
O     1.6714915   -6.6499678   -0.6329605 
C     0.5269600   -5.9029457   -0.0616102 
C    -0.7452574   -6.7564669   -0.1567141 
C     0.9556734   -5.7122477    1.3977381 
C     0.3757628   -4.5478073   -0.7649131 
H     0.1093872   -4.6778041   -1.8239356 
H    -0.4156578   -3.9668863   -0.2625361 
H     1.3173695   -3.9767705   -0.7022813 
H     1.1079017   -6.6898637    1.8861205 
H     1.8988207   -5.1415904    1.4480683 
H     0.1771519   -5.1585762    1.9491491 
H    -0.5808486   -7.7387577    0.3192058 
H    -1.5698800   -6.2468540    0.3708677 
H    -1.0350003   -6.9093729   -1.2073314 
C    -0.7315163   -1.0815575   -0.7872107 
C    -1.6497616   -0.0971814   -0.6332283 
C    -1.6879359    0.8979981    0.4347780 
C    -0.6137914    1.3016566    1.2329934 
N    -1.0055412    2.3232119    2.0647423 
C    -2.3254296    2.6281762    1.8315390 
C    -2.7963034    1.7495545    0.8193482 
C    -4.1698173    1.9211059    0.4741632 
N    -4.8027538    1.1786428   -0.4696759 
N    -4.8913278    2.8978528    1.0769749 
C    -4.2908686    3.6692712    2.0032908 
N    -3.0283856    3.5996915    2.4466641 
H    -0.7720978   -1.7545025   -1.6488393 
H     0.0650459   -1.2600237   -0.0557150 
H    -2.4284415   -0.0024935   -1.4019871 
H     0.4168751    0.9502505    1.2401175 
H    -0.4008303    2.8152135    2.7209749 
H    -4.4018756    0.3081775   -0.8058412 
H    -5.8084520    1.2988305   -0.5773298 
H    -4.9216824    4.4493505    2.4521427 
H     1.1517525   -2.0213903   -4.3377367 
