72
Energy = -1982.809588088
C     3.6200700   -2.7630228   -1.9909367 
C     3.1874512   -3.6545626   -2.9864948 
N     2.2429893   -3.3365803   -3.8964633 
C     1.6593321   -2.1386133   -3.8171901 
C     1.9770174   -1.1936700   -2.8128302 
C     3.0004699   -1.5157654   -1.8968946 
H     3.2840320   -0.8003878   -1.1199908 
H     4.4030794   -3.0740759   -1.2951492 
C     1.2096938    0.0549187   -2.6986292 
N     1.5169699    0.9250924   -1.7070490 
N     0.6702512    1.9055933   -1.4641171 
C    -0.4466656    1.9704146   -2.2223194 
N    -0.5593301    1.3227883   -3.4087212 
N     0.2881578    0.3499027   -3.6535085 
C    -1.5314521    2.9020427   -1.8147816 
N    -1.3996568    3.4896307   -0.6102537 
N    -2.5508178    3.0579035   -2.6778651 
C    -3.5349681    3.8850422   -2.2930624 
C    -3.5007400    4.5613740   -1.0656932 
C    -2.3872807    4.3229254   -0.2473442 
H    -2.2909862    4.8070723    0.7327734 
H    -4.3775846    4.0062485   -2.9844601 
H    -4.3048142    5.2356936   -0.7585153 
C     3.7341151   -5.0662452   -3.0157822 
N     3.2033583   -5.8241367   -4.0052195 
O     4.5682180   -5.4525959   -2.1823769 
C     3.3658442   -7.2639626   -4.1025660 
H     2.4572170   -5.3642235   -4.5366757 
C     2.0799199   -8.0106703   -3.6876930 
H     3.6234773   -7.5424036   -5.1402404 
H     4.2047014   -7.5442872   -3.4450195 
N     1.7019792   -7.7824663   -2.3021007 
H     1.2402881   -7.6844445   -4.3241061 
H     2.2273886   -9.0927952   -3.8419974 
C     0.9129350   -6.7354187   -1.9201384 
H     2.1895227   -8.2930021   -1.5668440 
O     0.3800427   -5.9399559   -2.6929369 
O     0.7873467   -6.7324573   -0.5635174 
C     0.2327601   -5.5577868    0.1461810 
C    -1.2417354   -5.3454573   -0.2259633 
C     0.3759072   -5.9590510    1.6183721 
C     1.0998174   -4.3352860   -0.1773763 
H     0.9974477   -4.0648216   -1.2393486 
H     0.7918802   -3.4797662    0.4469960 
H     2.1613545   -4.5538660    0.0271861 
H    -0.2009836   -6.8767809    1.8243728 
H     1.4350741   -6.1440620    1.8658713 
H    -0.0032044   -5.1509597    2.2665062 
H    -1.8173463   -6.2690511   -0.0423732 
H    -1.6640522   -4.5409807    0.4012489 
H    -1.3418846   -5.0649692   -1.2848618 
C     0.1379339   -0.5811809    0.9912700 
C    -1.1338000   -0.3900798    0.5774370 
C    -1.6676728   -0.7239228   -0.7430968 
C    -1.1287120   -1.6483739   -1.6440415 
N    -1.9103564   -1.7172919   -2.7749372 
C    -2.9765716   -0.8566826   -2.6504354 
C    -2.8704922   -0.2245798   -1.3827540 
C    -3.9277549    0.6859066   -1.0828095 
N    -4.0087880    1.3841621    0.0760596 
N    -4.9233281    0.8709402   -1.9822613 
C    -4.8729204    0.2033879   -3.1494219 
N    -3.9464710   -0.6708555   -3.5650753 
H     0.4448550   -0.3283683    2.0114561 
H     0.9115303   -0.9831618    0.3265404 
H    -1.8458991    0.0438207    1.2914423 
H    -0.2698273   -2.3038258   -1.5243194 
H    -1.7454488   -2.3229899   -3.5774273 
H    -3.2494864    1.4021179    0.7483673 
H    -4.7635740    2.0572982    0.1891568 
H    -5.6998187    0.4026537   -3.8454010 
H     0.8916261   -1.9054858   -4.5641799 
