72
Energy = -1982.798047709
C     2.2464785   -3.0665232    0.0473074 
C     1.4956474   -3.9311527   -0.7654653 
N     0.6699133   -3.4929984   -1.7369034 
C     0.5542480   -2.1728672   -1.9255091 
C     1.2536812   -1.2213774   -1.1540032 
C     2.1198383   -1.6887556   -0.1491082 
H     2.6796823   -0.9777250    0.4652973 
H     2.8980502   -3.4851532    0.8184961 
C     1.0417730    0.2410517   -1.3739712 
N     2.0704917    1.0776711   -0.9029074 
N     1.8986315    2.3405645   -1.1102966 
C     0.7971209    2.7140735   -1.8420002 
N     0.3480022    1.8655811   -2.8216316 
N     0.5319258    0.5989448   -2.6388392 
C     0.4115582    4.1399079   -1.8668588 
N     1.1104783    4.9739080   -1.0695791 
N    -0.6492298    4.4679286   -2.6307795 
C    -1.0360340    5.7524606   -2.5927357 
C    -0.3835663    6.7078638   -1.8009110 
C     0.7054496    6.2530070   -1.0456098 
H     1.2626484    6.9338962   -0.3892592 
H    -1.9039300    6.0251498   -3.2066861 
H    -0.7148223    7.7488330   -1.7638959 
C     1.5707524   -5.4219042   -0.5313062 
N     0.8013972   -6.1528746   -1.3789855 
O     2.2804885   -5.9013747    0.3667566 
C     0.5556724   -7.5691611   -1.1725993 
H     0.2047513   -5.6069047   -2.0076368 
C    -0.7651548   -7.8145191   -0.4045681 
H     0.5210524   -8.0906482   -2.1442776 
H     1.4078485   -7.9610649   -0.5938137 
N    -0.8622216   -6.9985884    0.7966730 
H    -1.6288585   -7.5560308   -1.0375207 
H    -0.8369067   -8.8833253   -0.1387193 
C    -1.4905756   -5.7804279    0.7677309 
H    -0.1502507   -7.1200449    1.5179340 
O    -2.2600927   -5.4146131   -0.1201168 
O    -1.1505826   -5.0640599    1.8695510 
C    -1.8183603   -3.7805677    2.1904105 
C    -3.3248879   -4.0136545    2.3689330 
C    -1.1580598   -3.3912393    3.5178493 
C    -1.5118756   -2.7397339    1.1054779 
H    -1.9269118   -3.0462914    0.1345364 
H    -1.9522379   -1.7711850    1.3977063 
H    -0.4220957   -2.6096568    1.0015321 
H    -1.3506065   -4.1599722    4.2856278 
H    -0.0671568   -3.2893608    3.3861255 
H    -1.5633635   -2.4281931    3.8714334 
H    -3.5011494   -4.8081872    3.1146136 
H    -3.7998332   -3.0849913    2.7295460 
H    -3.7911627   -4.3052322    1.4155341 
C    -0.4663764    0.5838727   -0.1262325 
C    -0.8476149    1.9417830   -0.0540190 
C    -0.4568436    2.8657613    0.9689647 
C     0.6172339    2.7004278    1.8643149 
N     0.7913902    3.8397303    2.5872762 
C    -0.1448248    4.7867450    2.2094109 
C    -0.9604965    4.2079171    1.2084016 
C    -2.0185857    5.0440715    0.7431366 
N    -2.9466502    4.6550232   -0.1610762 
N    -2.1082469    6.3151057    1.2110879 
C    -1.2261262    6.7321923    2.1345922 
N    -0.2311513    6.0326974    2.7035714 
H    -1.1481750   -0.0821465   -0.6634431 
H    -0.0006502    0.1370069    0.7583609 
H    -1.5987223    2.2795349   -0.7756953 
H     1.2861784    1.8508450    1.9973453 
H     1.5142127    3.9861934    3.2922886 
H    -3.0524715    3.6853030   -0.4395816 
H    -3.7015248    5.2978131   -0.3919851 
H    -1.3419986    7.7722915    2.4690775 
H    -0.1217543   -1.8402296   -2.7214613 
