72
Energy = -1982.796729317
C     1.0349273   -2.8285456    1.4943954 
C    -0.1233046   -3.6189601    1.4193342 
N    -1.2773438   -3.1810464    0.8773431 
C    -1.3134745   -1.9412644    0.3742262 
C    -0.2003780   -1.0749188    0.3843478 
C     0.9935882   -1.5343781    0.9692371 
H     1.8760092   -0.8883381    0.9937809 
H     1.9394063   -3.2429228    1.9467661 
C    -0.2959463    0.2963097   -0.1989891 
N     0.9251496    0.8603869   -0.6111243 
N     0.8450843    2.0356397   -1.1412867 
C    -0.4116702    2.5577216   -1.3273844 
N    -1.4437829    1.6947981   -1.5924115 
N    -1.3673895    0.5060263   -1.0888156 
C    -0.5450646    3.9896548   -1.6661170 
N     0.5870685    4.7227069   -1.6773399 
N    -1.7959684    4.4493730   -1.8680455 
C    -1.9155601    5.7639790   -2.1096687 
C    -0.8076724    6.6223213   -2.1465331 
C     0.4439137    6.0349281   -1.9193430 
H     1.3604850    6.6388441   -1.9185088 
H    -2.9320445    6.1464812   -2.2676633 
H    -0.9158878    7.6944145   -2.3300295 
C    -0.0855331   -5.0417595    1.9252629 
N    -1.2625347   -5.7062802    1.7899161 
O     0.9476660   -5.5312028    2.4081960 
C    -1.3617374   -7.1426702    1.9804200 
H    -1.9973831   -5.1951996    1.2917750 
C    -1.1943091   -7.9077571    0.6449545 
H    -2.3353699   -7.3958389    2.4329855 
H    -0.5623228   -7.4297880    2.6827671 
N    -0.0266019   -7.4598670   -0.0999454 
H    -2.0688070   -7.7418960   -0.0039777 
H    -1.1166804   -8.9889193    0.8537079 
C    -0.1409758   -6.4988191   -1.0718991 
H     0.8855037   -7.5312750    0.3530175 
O    -1.1990082   -6.1767113   -1.6114123 
O     1.0834717   -5.9857257   -1.3534098 
C     1.2897908   -5.0565788   -2.4905046 
C     0.8927543   -5.7523520   -3.7996311 
C     2.8006851   -4.8041201   -2.4342718 
C     0.5114007   -3.7546278   -2.2584443 
H    -0.5712463   -3.9435833   -2.2268796 
H     0.7321360   -3.0463278   -3.0755622 
H     0.8204861   -3.2912254   -1.3077505 
H     3.3561579   -5.7485707   -2.5649199 
H     3.0772063   -4.3633859   -1.4611201 
H     3.0956254   -4.1057972   -3.2355733 
H     1.4310683   -6.7108531   -3.8997391 
H     1.1640228   -5.1090506   -4.6544000 
H    -0.1908576   -5.9436375   -3.8279692 
C    -0.7928836    1.3567826    1.4202262 
C    -0.8573955    2.7464007    1.1839042 
C     0.1791913    3.6912298    1.4800777 
C     1.5301677    3.3816980    1.7281593 
N     2.2566254    4.5293934    1.8104733 
C     1.4309306    5.6248470    1.6269643 
C     0.1145004    5.1422566    1.4353645 
C    -0.8765908    6.1563772    1.2803355 
N    -2.1997245    5.9045129    1.1494487 
N    -0.4889835    7.4564635    1.2413268 
C     0.8125280    7.7520504    1.3969383 
N     1.8325103    6.9066587    1.6155729 
H    -1.7489758    0.8389149    1.5427526 
H     0.0127545    0.9827173    2.0609757 
H    -1.8210941    3.1460945    0.8512535 
H     2.0161774    2.4103166    1.8120815 
H     3.2635318    4.5802617    1.9665804 
H    -2.5924091    4.9874036    1.3339466 
H    -2.8426185    6.6926501    1.1053444 
H     1.0681823    8.8194383    1.3472257 
H    -2.2580742   -1.6111336   -0.0724062 
