72
Energy = -1982.810000272
C     4.3676986   -1.6882948   -2.2510978 
C     3.9744613   -3.0349032   -2.2155242 
N     2.6891588   -3.4329629   -2.3241623 
C     1.7422405   -2.4978393   -2.4124932 
C     2.0288197   -1.1109352   -2.4116470 
C     3.3785277   -0.7088152   -2.3506607 
H     3.6321289    0.3543974   -2.3579583 
H     5.4279548   -1.4361936   -2.1698071 
C     0.9422184   -0.1257917   -2.4352955 
N     1.2588602    1.1960696   -2.4242991 
N     0.2907335    2.0589725   -2.2118075 
C    -0.9587767    1.5721750   -2.0277237 
N    -1.3078082    0.3116095   -2.3621874 
N    -0.3350393   -0.5569742   -2.5680439 
C    -2.0124855    2.4864183   -1.5108560 
N    -1.7022995    3.7923503   -1.4244228 
N    -3.1675968    1.9071755   -1.1357551 
C    -4.1046189    2.7243339   -0.6276414 
C    -3.8943158    4.1035935   -0.4910161 
C    -2.6508733    4.5942136   -0.9141283 
H    -2.4076500    5.6616127   -0.8383961 
H    -5.0489578    2.2607954   -0.3154336 
H    -4.6592438    4.7625935   -0.0713487 
C     5.0091050   -4.1075856   -1.9653216 
N     4.5051605   -5.3618177   -1.9660224 
O     6.1999813   -3.8322754   -1.7505748 
C     5.2801736   -6.5190123   -1.5385129 
H     3.4981348   -5.4414956   -2.1484009 
C     4.4611236   -7.8068330   -1.6871213 
H     6.2042146   -6.5943318   -2.1402617 
H     5.5923955   -6.3823752   -0.4842464 
N     3.1961080   -7.7679673   -0.9629985 
H     4.2218562   -7.9790519   -2.7489271 
H     5.0616356   -8.6562230   -1.3229623 
C     2.0222549   -7.4369267   -1.5820799 
H     3.1832441   -7.9219987    0.0443978 
O     1.9341089   -7.1848924   -2.7867184 
O     1.0082862   -7.4250061   -0.6909891 
C    -0.3765551   -7.0693116   -1.0997865 
C    -0.9189817   -8.1763062   -2.0117348 
C    -1.1027950   -7.0338703    0.2495367 
C    -0.4093668   -5.6854556   -1.7637101 
H     0.0829887   -5.6999854   -2.7464023 
H    -1.4612845   -5.3745984   -1.8885218 
H     0.1026451   -4.9591219   -1.1137455 
H    -1.0505165   -8.0186378    0.7451273 
H    -0.6250880   -6.2801152    0.8984321 
H    -2.1632844   -6.7684718    0.1011515 
H    -0.8520113   -9.1565524   -1.5086180 
H    -1.9785756   -7.9755250   -2.2468053 
H    -0.3482011   -8.2143667   -2.9530070 
C    -0.1992076    1.6815896    1.2333164 
C    -0.0262864    0.3784225    0.9160795 
C     1.2411854   -0.3529823    0.8912616 
C     2.5267326    0.1944516    0.8701097 
N     3.4667820   -0.8121016    0.8723110 
C     2.8366784   -2.0337209    0.8729406 
C     1.4352707   -1.7897708    0.8891984 
C     0.6297780   -2.9666126    0.9190284 
N    -0.7295809   -2.9500648    0.9363783 
N     1.2285870   -4.1804002    0.8882792 
C     2.5705084   -4.2479796    0.8360841 
N     3.4465774   -3.2345063    0.8469663 
H    -1.1955379    2.1343873    1.2130582 
H     0.6354458    2.3294224    1.5264894 
H    -0.9191187   -0.1976863    0.6384524 
H     2.8387248    1.2378095    0.8367795 
H     4.4758022   -0.6787833    0.8313463 
H    -1.2322793   -2.1131507    1.2179996 
H    -1.2061998   -3.8372319    1.0891316 
H     2.9919277   -5.2601082    0.7780456 
H     0.7041365   -2.8416628   -2.4759870 
