68
Energy = -1946.361450552
N     1.8437975   -4.7917024   -1.6701991 
C     2.9059486   -4.8004337   -0.8383785 
C     3.4146611   -3.6407157   -0.2297649 
C     2.7652961   -2.4268206   -0.4584627 
C     1.6225723   -2.4157194   -1.2862773 
C     1.2180449   -3.6318227   -1.8878856 
C     0.8405061   -1.1867462   -1.4806577 
N    -0.3375867   -1.2605684   -2.1467824 
N    -1.1263105   -0.2048605   -2.1404093 
C    -0.7076852    0.8859798   -1.4569922 
N     0.5658073    1.0430604   -1.0335156 
N     1.3584489   -0.0089909   -1.0473640 
C    -1.6735554    1.9976568   -1.2365064 
N    -2.9680771    1.7104065   -1.4614707 
N    -1.1687062    3.1720710   -0.8193030 
C    -2.0578223    4.1552849   -0.6083736 
C    -3.4330891    3.9742186   -0.8142906 
C    -3.8425169    2.7066368   -1.2491306 
H    -4.9019671    2.4816062   -1.4247928 
H    -1.6589444    5.1173233   -0.2634245 
H    -4.1502314    4.7804337   -0.6377989 
C     3.5268498   -6.1382404   -0.5056479 
N     2.9400524   -7.1925570   -1.1271716 
O     4.4772019   -6.2246458    0.2869696 
C     3.2212826   -8.5644717   -0.7399206 
H     2.1124259   -6.9704395   -1.6882107 
C     2.1695893   -9.1023340    0.2621774 
N     1.9194256   -8.1742156    1.3547883 
H     2.5156974  -10.0709867    0.6621667 
H     1.2054858   -9.2615547   -0.2458977 
C     0.8812669   -7.2812328    1.2880530 
H     2.6975857   -7.9228940    1.9654551 
O    -0.0566256   -7.3664274    0.4957370 
O     1.0381621   -6.3179656    2.2316675 
C     0.0007463   -5.2787990    2.4455062 
C     0.6056622   -4.4299323    3.5692538 
C    -0.1699841   -4.4368830    1.1763814 
C    -1.3081559   -5.9409152    2.8946873 
H    -1.1300669   -6.5776531    3.7785251 
H    -1.7307991   -6.5565532    2.0861406 
H    -2.0382873   -5.1597129    3.1680677 
H     1.5918518   -4.0400785    3.2588279 
H    -0.0632425   -3.5816803    3.7912523 
H     0.7454487   -5.0281281    4.4855702 
H     4.2855686   -3.7165101    0.4258526 
H     3.1143687   -1.5079555    0.0209604 
H     0.3512044   -3.6493108   -2.5574548 
C    -0.7668431    0.8757083    2.0363301 
C    -0.4355805   -0.5391873    2.2452895 
N     0.9429458   -0.8258305    2.2258598 
C     2.0009392    0.0640921    2.0874339 
N     1.5828641    1.3778437    1.9243000 
C     0.2728865    1.7647062    1.8743340 
H     0.1112478    2.8267039    1.6780594 
H     2.3208714    2.0668229    1.7735335 
H     1.2073909   -1.7978450    2.4009579 
O     3.1803291   -0.2772649    2.1009339 
O    -1.2525906   -1.4472226    2.4251153 
C    -2.1868912    1.2461195    2.0228121 
C    -2.7019826    2.4785232    2.2150797 
H    -2.8649210    0.4002328    1.8534382 
H    -2.0763234    3.3527260    2.4325842 
H    -3.7823677    2.6476142    2.1598509 
H     4.2216428   -8.5667654   -0.2780581 
H     3.2438985   -9.2112644   -1.6332632 
H    -0.5513191   -5.0434129    0.3430761 
H     0.8047696   -4.0120520    0.8859144 
H    -0.8593115   -3.6013382    1.3799920 
