68
Energy = -1946.346936733
N    -1.4989600   -1.7637471    0.0464801 
C    -0.4068624   -2.3787761    0.5490435 
C     0.8521342   -1.7641240    0.6252810 
C     0.9789111   -0.4476500    0.1763327 
C    -0.1606677    0.2126876   -0.3266616 
C    -1.3794970   -0.5029737   -0.3734847 
C    -0.0990032    1.6244409   -0.7185408 
N    -1.1339499    2.1931312   -1.4254588 
N    -1.1111490    3.4741296   -1.5849377 
C    -0.0772851    4.1427405   -0.9015968 
N     1.1704116    3.5081578   -0.9494301 
N     1.1412254    2.2259255   -0.8069607 
C    -0.0784572    5.6407712   -1.0637305 
N    -1.2916639    6.2180300   -1.0889699 
N     1.1077763    6.2636124   -1.1294180 
C     1.0676288    7.6018220   -1.2638103 
C    -0.1389437    8.3102149   -1.3269742 
C    -1.3146483    7.5544840   -1.2255137 
H    -2.3023032    8.0326610   -1.2460598 
H     2.0333689    8.1206440   -1.3197273 
H    -0.1622102    9.3979677   -1.4366379 
C    -0.5585068   -3.8106226    0.9986513 
N    -1.8075790   -4.3163304    0.8287619 
O     0.3985108   -4.4487727    1.4667418 
C    -2.0863913   -5.7340370    0.9813529 
H    -2.4749110   -3.6968562    0.3602422 
C    -1.9078116   -6.5005614   -0.3530641 
H    -3.1133053   -5.8738793    1.3573999 
H    -1.3804274   -6.1230610    1.7332462 
N    -0.6565839   -6.1506908   -1.0131730 
H    -1.9437893   -7.5858948   -0.1538722 
H    -2.7183547   -6.2502751   -1.0556486 
C    -0.6355543   -5.1956310   -1.9991467 
H     0.1987739   -6.2235007   -0.4590722 
O    -1.6161465   -4.8517797   -2.6578800 
O     0.6255122   -4.7148003   -2.1414348 
C     0.9894175   -3.8132054   -3.2613305 
C     2.4840741   -3.5784308   -3.0155779 
C     0.2094220   -2.4951777   -3.1622004 
C     0.7502645   -4.5361935   -4.5936858 
H     1.2858437   -5.5013287   -4.6050696 
H    -0.3239826   -4.7189081   -4.7511581 
H     1.1310122   -3.9157268   -5.4231796 
H     0.3995338   -2.0126144   -2.1903034 
H     0.5492688   -1.8115575   -3.9592579 
H    -0.8709418   -2.6677584   -3.2702494 
H     2.6383903   -3.1153750   -2.0257253 
H     2.8918088   -2.9053441   -3.7884691 
H     3.0365621   -4.5329682   -3.0488573 
H     1.6992351   -2.3254789    1.0272458 
H     1.9399723    0.0733499    0.2093887 
H    -2.2810174   -0.0178514   -0.7656826 
C     0.3693253    2.0081493    2.2419189 
C    -0.0023942    0.7358111    2.8898599 
N     1.0403574    0.1297320    3.6107478 
C     2.3405424    0.5797543    3.7767993 
N     2.5868608    1.7947437    3.1247678 
C     1.6601694    2.4755702    2.4042202 
H     2.0145605    3.4040128    1.9492122 
H     3.5337828    2.1672994    3.2200459 
H     0.8131149   -0.7512531    4.0791724 
O     3.1971973   -0.0108391    4.4198062 
O    -1.1124521    0.2087974    2.8372166 
C    -0.6413153    2.6740431    1.4501373 
C    -0.6022463    4.0081399    1.0013785 
H    -1.5910014    2.1323637    1.3863999 
H     0.1778270    4.6705073    1.3933833 
H    -1.5647230    4.4962596    0.8183152 
