68
Energy = -1946.360702138
N     2.2534033   -3.2534625   -2.9476691 
C     3.4481806   -3.2017285   -2.3230956 
C     3.9102514   -2.0626827   -1.6426579 
C     3.1024080   -0.9246657   -1.6218063 
C     1.8621150   -0.9607353   -2.2917221 
C     1.4843721   -2.1617320   -2.9368782 
C     0.9665946    0.2051281   -2.3031598 
N    -0.1346834    0.1811941   -3.0962558 
N    -1.0346085    1.1273438   -2.9383786 
C    -0.8114861    2.0347507   -1.9580951 
N     0.4188332    2.2469616   -1.4386066 
N     1.3394611    1.3275856   -1.6369358 
C    -1.9284696    2.9172835   -1.5271429 
N    -3.0591064    2.8734772   -2.2547495 
N    -1.7104890    3.6518650   -0.4215498 
C    -2.7323347    4.4157200   -0.0058726 
C    -3.9554749    4.4599214   -0.6899995 
C    -4.0656410    3.6568111   -1.8325061 
H    -4.9912938    3.6307700   -2.4211678 
H    -2.5704833    5.0070763    0.9039723 
H    -4.7842450    5.0839596   -0.3450366 
C     4.3304486   -4.4275221   -2.4005716 
N     3.7626022   -5.4717134   -3.0556554 
O     5.4652535   -4.4368204   -1.8999061 
C     4.5185792   -6.6504596   -3.4409308 
H     2.8544700   -5.2757623   -3.4874576 
C     4.9786268   -6.5723256   -4.9162841 
H     3.9064049   -7.5566659   -3.2932092 
H     5.3924099   -6.7029902   -2.7715469 
N     5.6339179   -5.3110594   -5.2258339 
H     5.6642781   -7.4109600   -5.1267704 
H     4.1108130   -6.6566122   -5.5895767 
C     4.9198642   -4.2503774   -5.7193460 
H     6.5085755   -5.0888887   -4.7495499 
O     3.7859263   -4.3346068   -6.1902524 
O     5.6606515   -3.1167925   -5.6269760 
C     5.1958716   -1.8403676   -6.2213833 
C     6.3635959   -0.8947070   -5.9187293 
C     3.9156040   -1.3707563   -5.5176795 
C     5.0042523   -2.0137971   -7.7344251 
H     5.9267235   -2.4122679   -8.1913398 
H     4.1714645   -2.7008555   -7.9478448 
H     4.7848078   -1.0331523   -8.1907477 
H     4.0930747   -1.2730949   -4.4336954 
H     3.6216930   -0.3824544   -5.9110095 
H     3.0943210   -2.0832541   -5.6812539 
H     6.5295654   -0.8285045   -4.8297940 
H     6.1398106    0.1141935   -6.3043774 
H     7.2895511   -1.2589432   -6.3956952 
H     4.8874405   -2.0886423   -1.1542819 
H     3.4204346   -0.0138033   -1.1075201 
H     0.5219700   -2.2241402   -3.4574923 
C    -2.9894927   -0.0085895   -0.5465501 
C    -4.0264850    0.8384906    0.0584619 
N    -5.2404639    0.8707599   -0.6497815 
C    -5.5433150    0.2565896   -1.8558105 
N    -4.4928284   -0.5115252   -2.3513835 
C    -3.2795966   -0.6328330   -1.7387523 
H    -2.5527538   -1.2477539   -2.2743602 
H    -4.6594828   -0.9736850   -3.2464688 
H    -5.9834816    1.4466078   -0.2465712 
O    -6.6187323    0.3754201   -2.4332575 
O    -3.8982545    1.4998239    1.0919309 
C    -1.6884951   -0.0724563    0.1227819 
C    -0.6979267   -0.9663023   -0.1026390 
H    -1.5461728    0.7045868    0.8845869 
H    -0.8013327   -1.7987475   -0.8090496 
H     0.2472477   -0.9024737    0.4460222 
