72
Energy = -1982.796719724
C     1.9202648   -3.1904980    1.1687819 
C     0.6783808   -3.7023831    1.5766592 
N    -0.4732586   -3.0092191    1.4666066 
C    -0.4289643   -1.7890052    0.9212637 
C     0.7642957   -1.1923440    0.4618971 
C     1.9639373   -1.9112568    0.6063475 
H     2.9064345   -1.4759592    0.2631052 
H     2.8182443   -3.8021526    1.2876976 
C     0.7397468    0.1718492   -0.1447127 
N     1.8872313    0.5324403   -0.8771381 
N     1.8588316    1.7135678   -1.4037322 
C     0.6826593    2.4130143   -1.3171981 
N    -0.4963505    1.7085386   -1.2965570 
N    -0.4776983    0.5399538   -0.7468001 
C     0.6496291    3.8451194   -1.6792684 
N     1.8338004    4.4881038   -1.7136171 
N    -0.5651477    4.3969183   -1.8770089 
C    -0.5855919    5.7131451   -2.1378881 
C     0.5838475    6.4821745   -2.2012202 
C     1.7898393    5.8031535   -1.9775713 
H     2.7498314    6.3345911   -1.9996899 
H    -1.5721644    6.1701817   -2.2884107 
H     0.5566353    7.5564289   -2.4013205 
C     0.5969022   -5.1059329    2.1300181 
N    -0.6545349   -5.4761641    2.5070619 
O     1.6017080   -5.8293116    2.2131309 
C    -0.9927646   -6.8527582    2.8220541 
H    -1.3916054   -4.7987362    2.2887697 
C    -1.6182170   -7.5768543    1.6057383 
H    -1.6958903   -6.8853602    3.6719992 
H    -0.0565716   -7.3514014    3.1212910 
N    -0.8285948   -7.4072899    0.3954714 
H    -2.6193265   -7.1691241    1.3934801 
H    -1.7228703   -8.6509259    1.8371728 
C    -1.1007622   -6.3925244   -0.4854020 
H     0.1240370   -7.7731215    0.3846280 
O    -2.1482273   -5.7466828   -0.4999839 
O    -0.0571511   -6.2347942   -1.3384923 
C    -0.1383831   -5.3115313   -2.4963593 
C    -1.2866597   -5.7414567   -3.4197431 
C     1.2208233   -5.5181893   -3.1740705 
C    -0.2893444   -3.8659572   -2.0048918 
H    -1.2344946   -3.7331617   -1.4592538 
H    -0.2708737   -3.1799540   -2.8692250 
H     0.5472540   -3.6028226   -1.3370446 
H     1.3399716   -6.5688477   -3.4895730 
H     2.0376285   -5.2635603   -2.4771589 
H     1.2998568   -4.8702917   -4.0632986 
H    -1.1727171   -6.8030383   -3.7001487 
H    -1.2637674   -5.1333546   -4.3405000 
H    -2.2599545   -5.6026338   -2.9251201 
C     0.8327992    1.3121937    1.4936522 
C     0.7189021    2.6926632    1.2246296 
C    -0.4824531    3.4663036    1.3400436 
C    -1.7913116    2.9508979    1.4032974 
N    -2.6899730    3.9709232    1.3433634 
C    -2.0249715    5.1805754    1.2431034 
C    -0.6362717    4.9088844    1.2573914 
C     0.1987808    6.0643617    1.2125245 
N     1.5497357    6.0218641    1.2808807 
N    -0.3742818    7.2868535    1.0748067 
C    -1.7143974    7.3758983    1.0327113 
N    -2.6130018    6.3831724    1.1318423 
H     1.8281489    0.9482610    1.7661491 
H     0.0090199    0.8259240    2.0268236 
H     1.6480900    3.2346484    1.0196336 
H    -2.1291646    1.9162287    1.4494238 
H    -3.7045749    3.8644354    1.3521857 
H     2.0464312    5.1807166    1.5550867 
H     2.0625118    6.9010209    1.3060210 
H    -2.1212310    8.3892324    0.9110885 
H    -1.3801711   -1.2514422    0.8292895 
